DF-ISE text

Info {
  version   = 1.0
  type      = xyplot
  datasets  = [
    "time"
    "cathode OuterVoltage" "cathode InnerVoltage" "cathode QuasiFermiPotential" "cathode DisplacementCurrent" "cathode eCurrent"
    "cathode hCurrent" "cathode TotalCurrent" "cathode Charge" "anode OuterVoltage" "anode InnerVoltage"
    "anode QuasiFermiPotential" "anode DisplacementCurrent" "anode eCurrent" "anode hCurrent" "anode TotalCurrent"
    "anode Charge" ]
  functions = [
    Time
    OuterVoltage InnerVoltage QuasiFermiPotential DisplacementCurrent eCurrent
    hCurrent TotalCurrent Charge OuterVoltage InnerVoltage
    QuasiFermiPotential DisplacementCurrent eCurrent hCurrent TotalCurrent
    Charge ]
}

Data {
      0.00000000000000E+00
      0.00000000000000E+00   0.00000000000000E+00   0.00000000000000E+00   0.00000000000000E+00   2.16405740594730E-30
      3.15352371889822E-23   3.15352393530396E-23  -3.83252402150940E-16   0.00000000000000E+00   0.00000000000000E+00
      0.00000000000000E+00   0.00000000000000E+00  -1.43011906103752E-28  -3.15350963411354E-23  -3.15352393530415E-23
      3.83252402150937E-16
      0.00000000000000E+00
      0.00000000000000E+00   0.00000000000000E+00   0.00000000000000E+00   0.00000000000000E+00  -9.82085867384268E-25
      1.41734369681526E-16   1.41734368699441E-16  -3.83258336225511E-16   0.00000000000000E+00   0.00000000000000E+00
      0.00000000000000E+00   0.00000000000000E+00   5.96470092242333E-23  -1.41734428346443E-16  -1.41734368699434E-16
      3.83258336225511E-16
      5.00000000000000E-02
     -5.00000000000000E-03  -5.00000000000000E-03   0.00000000000000E+00   0.00000000000000E+00  -1.09920754226862E-21
     -2.20528977670223E-15  -2.20529087590978E-15  -3.83466502605801E-16   0.00000000000000E+00   0.00000000000000E+00
      0.00000000000000E+00   0.00000000000000E+00   2.20529059513937E-15   2.80770415957986E-22   2.20529087590979E-15
      3.83466502605801E-16
      1.20555555555556E-01
     -1.20555555555556E-02  -1.20555555555556E-02   0.00000000000000E+00   0.00000000000000E+00  -2.29069377505340E-21
     -4.88823746807443E-15  -4.88823975876821E-15  -3.83757230072357E-16   0.00000000000000E+00   0.00000000000000E+00
      0.00000000000000E+00   0.00000000000000E+00   4.88823911325681E-15   6.45511424195012E-22   4.88823975876823E-15
      3.83757230072356E-16
      2.20117283950617E-01
     -2.20117283950617E-02  -2.20117283950617E-02   0.00000000000000E+00   0.00000000000000E+00  -3.45031890150131E-21
     -7.97007197565389E-15  -7.97007542597279E-15  -3.84162306497542E-16   0.00000000000000E+00   0.00000000000000E+00
      0.00000000000000E+00   0.00000000000000E+00   7.97007467724097E-15   7.48731874927051E-22   7.97007542597284E-15
      3.84162306497544E-16
      3.60609945130315E-01
     -3.60609945130315E-02  -3.60609945130315E-02   0.00000000000000E+00   0.00000000000000E+00  -4.41980945443821E-21
     -1.12551158737883E-14  -1.12551202935978E-14  -3.84726099980705E-16   0.00000000000000E+00   0.00000000000000E+00
      0.00000000000000E+00   0.00000000000000E+00   1.12551191917304E-14   1.10186725315392E-21   1.12551202935977E-14
      3.84726099980705E-16
      5.58860700350556E-01
     -5.58860700350556E-02  -5.58860700350556E-02   0.00000000000000E+00   0.00000000000000E+00  -5.07220864689317E-21
     -1.44633114440415E-14  -1.44633165162502E-14  -3.85513020352644E-16   0.00000000000000E+00   0.00000000000000E+00
      0.00000000000000E+00   0.00000000000000E+00   1.44634565447837E-14  -1.40028533509401E-19   1.44633165162502E-14
      3.85513020352647E-16
      8.38614543828007E-01
     -8.38614543828007E-02  -8.38614543828007E-02   0.00000000000000E+00   0.00000000000000E+00  -5.38915141892687E-21
     -1.73592921729749E-14  -1.73592975621263E-14  -3.86622929825284E-16   0.00000000000000E+00   0.00000000000000E+00
      0.00000000000000E+00   0.00000000000000E+00   1.73644526788797E-14  -5.15511675340183E-18   1.73592975621263E-14
      3.86622929825285E-16
      1.00000000000000E+00
     -1.00000000000000E-01  -1.00000000000000E-01   0.00000000000000E+00   0.00000000000000E+00  -5.45490180436008E-21
     -1.85571756166851E-14  -1.85571810715869E-14  -3.87269834556856E-16   0.00000000000000E+00   0.00000000000000E+00
      0.00000000000000E+00   0.00000000000000E+00   1.85572139889589E-14  -3.29173722337098E-20   1.85571810715867E-14
      3.87269834556851E-16
      2.00000000000000E-02
     -1.18000000000000E-01  -1.18000000000000E-01   0.00000000000000E+00   0.00000000000000E+00  -5.48490098654032E-21
     -1.96458573683915E-14  -1.96458628532925E-14  -3.88000798769073E-16   0.00000000000000E+00   0.00000000000000E+00
      0.00000000000000E+00   0.00000000000000E+00   1.96459309211397E-14  -6.80678470652830E-20   1.96458628532926E-14
      3.88000798769071E-16
      4.32888888888889E-02
     -1.38960000000000E-01  -1.38960000000000E-01   0.00000000000000E+00   0.00000000000000E+00  -5.49832394311912E-21
     -2.06999145593356E-14  -2.06999200576596E-14  -3.88866811311501E-16   0.00000000000000E+00   0.00000000000000E+00
      0.00000000000000E+00   0.00000000000000E+00   2.07001068872826E-14  -1.86829623253507E-19   2.06999200576594E-14
      3.88866811311502E-16
      7.04075061728395E-02
     -1.63366755555556E-01  -1.63366755555556E-01   0.00000000000000E+00   0.00000000000000E+00  -5.50370506578522E-21
     -2.17328911234948E-14  -2.17328966271998E-14  -3.89896516760995E-16   0.00000000000000E+00   0.00000000000000E+00
      0.00000000000000E+00   0.00000000000000E+00   2.17334060547473E-14  -5.09427547799235E-19   2.17328966271995E-14
      3.89896516760992E-16
      1.01985629410151E-01
     -1.91787066469136E-01  -1.91787066469136E-01   0.00000000000000E+00   0.00000000000000E+00  -5.50578530105346E-21
     -2.27571502021735E-14  -2.27571557079588E-14  -3.91123423134663E-16   0.00000000000000E+00   0.00000000000000E+00
      0.00000000000000E+00   0.00000000000000E+00   2.27585698658768E-14  -1.41415791830366E-18   2.27571557079585E-14
      3.91123423134662E-16
      1.38756599579820E-01
     -2.24880939621838E-01  -2.24880939621838E-01   0.00000000000000E+00   0.00000000000000E+00  -5.50666840876075E-21
     -2.37866186529380E-14  -2.37866241596064E-14  -3.92586766221938E-16   0.00000000000000E+00   0.00000000000000E+00
      0.00000000000000E+00   0.00000000000000E+00   2.37907095190769E-14  -4.08535947058691E-18   2.37866241596063E-14
      3.92586766221935E-16
      1.81574351510724E-01
     -2.63416916359651E-01  -2.63416916359651E-01   0.00000000000000E+00   0.00000000000000E+00  -5.50715514364851E-21
     -2.48392959311296E-14  -2.48393014382848E-14  -3.94335662375852E-16   0.00000000000000E+00   0.00000000000000E+00
      0.00000000000000E+00   0.00000000000000E+00   2.48511465939251E-14  -1.18451556401267E-17   2.48393014382850E-14
      3.94335662375850E-16
      2.31433244870265E-01
     -3.08289920383239E-01  -3.08289920383239E-01   0.00000000000000E+00   0.00000000000000E+00  -5.50750950372596E-21
     -2.59343238958834E-14  -2.59343294033929E-14  -3.96438838743207E-16   0.00000000000000E+00   0.00000000000000E+00
      0.00000000000000E+00   0.00000000000000E+00   2.59653561708173E-14  -3.10267674247835E-17   2.59343294033925E-14
      3.96438838743207E-16
      2.89491156248931E-01
     -3.60542040624038E-01  -3.60542040624038E-01   0.00000000000000E+00   0.00000000000000E+00  -5.50785437817865E-21
     -2.71517259760217E-14  -2.71517314838761E-14  -3.98998139806789E-16   0.00000000000000E+00   0.00000000000000E+00
      0.00000000000000E+00   0.00000000000000E+00   2.71517296673455E-14   1.81653046120078E-21   2.71517314838760E-14
      3.98998139806791E-16
      3.56064227963134E-01
     -4.20457805166821E-01  -4.20457805166821E-01   0.00000000000000E+00   0.00000000000000E+00  -5.50812814167506E-21
     -2.83871413570309E-14  -2.83871468651591E-14  -4.02108151812785E-16   0.00000000000000E+00   0.00000000000000E+00
      0.00000000000000E+00   0.00000000000000E+00   2.83871449834358E-14   1.88172304021489E-21   2.83871468651588E-14
      4.02108151812785E-16
      4.32401350195421E-01
     -4.89161215175879E-01  -4.89161215175879E-01   0.00000000000000E+00   0.00000000000000E+00  -5.50836247013757E-21
     -2.96386438012940E-14  -2.96386493096565E-14  -4.05923451682742E-16   0.00000000000000E+00   0.00000000000000E+00
      0.00000000000000E+00   0.00000000000000E+00   2.96386473563728E-14   1.95328358259080E-21   2.96386493096564E-14
      4.05923451682740E-16
      5.19934583688443E-01
     -5.67941125319599E-01  -5.67941125319599E-01   0.00000000000000E+00   0.00000000000000E+00  -5.50855556588567E-21
     -3.08697759230134E-14  -3.08697814315690E-14  -4.10609102020399E-16   0.00000000000000E+00   0.00000000000000E+00
      0.00000000000000E+00   0.00000000000000E+00   3.08697795416940E-14   1.88987529323239E-21   3.08697814315693E-14
      4.10609102020400E-16
      6.20306024760442E-01
     -6.58275422284398E-01  -6.58275422284398E-01   0.00000000000000E+00   0.00000000000000E+00  -5.50871204114161E-21
     -3.20782935220394E-14  -3.20782990307514E-14  -4.16344050112579E-16   0.00000000000000E+00   0.00000000000000E+00
      0.00000000000000E+00   0.00000000000000E+00   3.20782971495259E-14   1.88122537823652E-21   3.20782990307513E-14
      4.16344050112583E-16
      7.35398610523000E-01
     -7.61858749470700E-01  -7.61858749470700E-01   0.00000000000000E+00   0.00000000000000E+00  -5.50883974135390E-21
     -3.32890944253215E-14  -3.32890999341612E-14  -4.23369994241332E-16   0.00000000000000E+00   0.00000000000000E+00
      0.00000000000000E+00   0.00000000000000E+00   3.32890986130466E-14   1.32111340309989E-21   3.32890999341600E-14
      4.23369994241332E-16
      8.67371442197400E-01
     -8.80634297977660E-01  -8.80634297977660E-01   0.00000000000000E+00   0.00000000000000E+00  -5.50894267328239E-21
     -3.45019199281408E-14  -3.45019254370834E-14  -4.32030973112857E-16   0.00000000000000E+00   0.00000000000000E+00
      0.00000000000000E+00   0.00000000000000E+00   3.45019239707195E-14   1.46636472300709E-21   3.45019254370842E-14
      4.32030973112858E-16
      1.00000000000000E+00
     -1.00000000000000E+00  -1.00000000000000E+00   0.00000000000000E+00   0.00000000000000E+00  -5.50901358851053E-21
     -3.55474035346632E-14  -3.55474090436768E-14  -4.41378428722120E-16   0.00000000000000E+00   0.00000000000000E+00
      0.00000000000000E+00   0.00000000000000E+00   3.55474079990607E-14   1.04461615334382E-21   3.55474090436769E-14
      4.41378428722121E-16
      0.00000000000000E+00
     -1.00000000000000E+00  -1.00000000000000E+00   0.00000000000000E+00   0.00000000000000E+00  -5.50901358949956E-21
     -3.55474045225388E-14  -3.55474100315524E-14  -4.41378428722143E-16   0.00000000000000E+00   0.00000000000000E+00
      0.00000000000000E+00   0.00000000000000E+00   3.55474079990234E-14   2.03252906533952E-21   3.55474100315525E-14
      4.41378428722143E-16
      1.00000000000000E-01
     -1.40000000000000E+00  -1.40000000000000E+00   0.00000000000000E+00   0.00000000000000E+00  -5.50911953287943E-21
     -3.81283067072758E-14  -3.81283122163953E-14  -4.77039067693355E-16   0.00000000000000E+00   0.00000000000000E+00
      0.00000000000000E+00   0.00000000000000E+00   3.81439872976051E-14  -1.56750812097909E-17   3.81283122163953E-14
      4.77039067693354E-16
      2.32222222222222E-01
     -1.92888888888889E+00  -1.92888888888889E+00   0.00000000000000E+00   0.00000000000000E+00  -5.50915184582209E-21
     -4.03374294698657E-14  -4.03374349790175E-14  -5.33519321099868E-16   0.00000000000000E+00   0.00000000000000E+00
      0.00000000000000E+00   0.00000000000000E+00   4.03392289465100E-14  -1.79396749334178E-18   4.03374349790166E-14
      5.33519321099870E-16
      4.07049382716049E-01
     -2.62819753086420E+00  -2.62819753086420E+00   0.00000000000000E+00   0.00000000000000E+00  -5.50913657594652E-21
     -4.21614651309886E-14  -4.21614706401251E-14  -6.21324971848596E-16   0.00000000000000E+00   0.00000000000000E+00
      0.00000000000000E+00   0.00000000000000E+00   4.21635156596665E-14  -2.04501954102399E-18   4.21614706401255E-14
      6.21324971848595E-16
      6.38209739368999E-01
     -3.55283895747599E+00  -3.55283895747599E+00   0.00000000000000E+00   0.00000000000000E+00  -5.50909986360360E-21
     -4.37747091106228E-14  -4.37747146197227E-14  -7.53970999678142E-16   0.00000000000000E+00   0.00000000000000E+00
      0.00000000000000E+00   0.00000000000000E+00   4.37747895394425E-14  -7.49197198048317E-20   4.37747146197227E-14
      7.53970999678139E-16
      9.43855099832343E-01
     -4.77542039932937E+00  -4.77542039932937E+00   0.00000000000000E+00   0.00000000000000E+00  -5.50849355041061E-21
     -4.48005273706103E-14  -4.48005328791039E-14  -9.46238768769982E-16   0.00000000000000E+00   0.00000000000000E+00
      0.00000000000000E+00   0.00000000000000E+00   4.48005749836298E-14  -4.21045265101700E-20   4.48005328791033E-14
      9.46238768769982E-16
      1.00000000000000E+00
     -5.00000000000000E+00  -5.00000000000000E+00   0.00000000000000E+00   0.00000000000000E+00  -5.50906721371354E-21
     -4.49739025126959E-14  -4.49739080217631E-14  -9.82804576717599E-16   0.00000000000000E+00   0.00000000000000E+00
      0.00000000000000E+00   0.00000000000000E+00   4.49739136336156E-14  -5.61185298036322E-21   4.49739080217626E-14
      9.82804576717600E-16
      0.00000000000000E+00
     -5.00000000000000E+00  -5.00000000000000E+00   0.00000000000000E+00   0.00000000000000E+00  -5.50906721685658E-21
     -4.49739098970830E-14  -4.49739154061502E-14  -9.82804576717574E-16   0.00000000000000E+00   0.00000000000000E+00
      0.00000000000000E+00   0.00000000000000E+00   4.49739136336151E-14   1.77253459875401E-21   4.49739154061497E-14
      9.82804576717575E-16
      1.00000000000000E-01
     -5.27000000000000E+00  -5.27000000000000E+00   0.00000000000000E+00   0.00000000000000E+00  -5.50906254008691E-21
     -4.51916160045208E-14  -4.51916215135833E-14  -1.02710793961435E-15   0.00000000000000E+00   0.00000000000000E+00
      0.00000000000000E+00   0.00000000000000E+00   4.51916748529513E-14  -5.33393681962753E-20   4.51916215135831E-14
      1.02710793961435E-15
      2.36666666666667E-01
     -5.63900000000000E+00  -5.63900000000000E+00   0.00000000000000E+00   0.00000000000000E+00  -5.50905219361387E-21
     -4.54990789055954E-14  -4.54990844146476E-14  -1.08815092855066E-15   0.00000000000000E+00   0.00000000000000E+00
      0.00000000000000E+00   0.00000000000000E+00   4.55030254678824E-14  -3.94105323445277E-18   4.54990844146480E-14
      1.08815092855066E-15
      4.23444444444445E-01
     -6.14330000000000E+00  -6.14330000000000E+00   0.00000000000000E+00   0.00000000000000E+00  -5.50905205268097E-21
     -4.59253568014263E-14  -4.59253623104783E-14  -1.17226193969605E-15   0.00000000000000E+00   0.00000000000000E+00
      0.00000000000000E+00   0.00000000000000E+00   4.59253604059887E-14   1.90449013365157E-21   4.59253623104788E-14
      1.17226193969605E-15
      6.70406172839506E-01
     -6.81009666666667E+00  -6.81009666666667E+00   0.00000000000000E+00   0.00000000000000E+00  -5.50904796038022E-21
     -4.64156366461092E-14  -4.64156421551572E-14  -1.28427451056307E-15   0.00000000000000E+00   0.00000000000000E+00
      0.00000000000000E+00   0.00000000000000E+00   4.64156402624710E-14   1.89268599897246E-21   4.64156421551570E-14
      1.28427451056307E-15
      9.96944458161866E-01
     -7.69175003703704E+00  -7.69175003703704E+00   0.00000000000000E+00   0.00000000000000E+00  -5.50904723415107E-21
     -4.69174571522617E-14  -4.69174626613090E-14  -1.43316804093239E-15   0.00000000000000E+00   0.00000000000000E+00
      0.00000000000000E+00   0.00000000000000E+00   4.69174608468722E-14   1.81443679704875E-21   4.69174626613090E-14
      1.43316804093239E-15
      1.00000000000000E+00
     -7.70000000000000E+00  -7.70000000000000E+00   0.00000000000000E+00   0.00000000000000E+00  -5.50901972831609E-21
     -4.69075544820185E-14  -4.69075599910383E-14  -1.43456348359260E-15   0.00000000000000E+00   0.00000000000000E+00
      0.00000000000000E+00   0.00000000000000E+00   4.69215290440687E-14  -1.39690530301697E-17   4.69075599910385E-14
      1.43456348359260E-15
      0.00000000000000E+00
     -7.70000000000000E+00  -7.70000000000000E+00   0.00000000000000E+00   0.00000000000000E+00  -5.50904737208267E-21
     -4.69215254481248E-14  -4.69215309571722E-14  -1.43456348138327E-15   0.00000000000000E+00   0.00000000000000E+00
      0.00000000000000E+00   0.00000000000000E+00   4.69215290340614E-14   1.92311111927238E-21   4.69215309571726E-14
      1.43456348138327E-15
      5.00000000000000E-02
     -8.31000000000000E+00  -8.31000000000000E+00   0.00000000000000E+00   0.00000000000000E+00  -5.50709397269442E-21
     -4.71670148737635E-14  -4.71670203808575E-14  -1.53779569671050E-15   0.00000000000000E+00   0.00000000000000E+00
      0.00000000000000E+00   0.00000000000000E+00   4.72006679806900E-14  -3.36475998331408E-17   4.71670203808568E-14
      1.53779569671050E-15
      1.11000000000000E-01
     -9.05420000000000E+00  -9.05420000000000E+00   0.00000000000000E+00   0.00000000000000E+00  -5.50905459085721E-21
     -4.74969819741951E-14  -4.74969874832497E-14  -1.66386750614837E-15   0.00000000000000E+00   0.00000000000000E+00
      0.00000000000000E+00   0.00000000000000E+00   4.74969856136951E-14   1.86955493923383E-21   4.74969874832500E-14
      1.66386750614837E-15
      1.83793333333333E-01
     -9.94227866666667E+00  -9.94227866666667E+00   0.00000000000000E+00   0.00000000000000E+00  -5.50906355978975E-21
     -4.77997041211728E-14  -4.77997096302364E-14  -1.81446051722921E-15   0.00000000000000E+00   0.00000000000000E+00
      0.00000000000000E+00   0.00000000000000E+00   4.77997077630457E-14   1.86719129411950E-21   4.77997096302370E-14
      1.81446051722921E-15
      2.70660044444444E-01
     -1.10020525422222E+01  -1.10020525422222E+01   0.00000000000000E+00   0.00000000000000E+00  -5.50903342561550E-21
     -4.81168858249041E-14  -4.81168913339375E-14  -1.99411349368238E-15   0.00000000000000E+00   0.00000000000000E+00
      0.00000000000000E+00   0.00000000000000E+00   4.81168894680959E-14   1.86584148615985E-21   4.81168913339374E-14
      1.99411349368238E-15
      3.74320986370370E-01
     -1.22667160337185E+01  -1.22667160337185E+01   0.00000000000000E+00   0.00000000000000E+00  -4.54507090171447E-21
     -4.84636633396368E-14  -4.84636678847077E-14  -2.20830180178161E-15   0.00000000000000E+00   0.00000000000000E+00
      0.00000000000000E+00   0.00000000000000E+00   4.84636660154632E-14   1.86924418801137E-21   4.84636678847074E-14
      2.20830180178161E-15
      4.98023043735309E-01
     -1.37758811335708E+01  -1.37758811335708E+01   0.00000000000000E+00   0.00000000000000E+00  -2.83173831021191E-21
     -4.88059569546930E-14  -4.88059597864313E-14  -2.46407019020028E-15   0.00000000000000E+00   0.00000000000000E+00
      0.00000000000000E+00   0.00000000000000E+00   4.88059579167356E-14   1.86969592301647E-21   4.88059597864315E-14
      2.46407019020027E-15
      6.45640832190802E-01
     -1.55768181527278E+01  -1.55768181527278E+01   0.00000000000000E+00   0.00000000000000E+00  -4.38835947989964E-21
     -4.91421222956051E-14  -4.91421266839646E-14  -2.76952192652020E-15   0.00000000000000E+00   0.00000000000000E+00
      0.00000000000000E+00   0.00000000000000E+00   4.91421248145509E-14   1.86941265837727E-21   4.91421266839636E-14
      2.76952192652020E-15
      8.21798059747690E-01
     -1.77259363289218E+01  -1.77259363289218E+01   0.00000000000000E+00   0.00000000000000E+00   1.21844056451376E-20
     -4.95496291635384E-14  -4.95496169791328E-14  -3.13397425601218E-15   0.00000000000000E+00   0.00000000000000E+00
      0.00000000000000E+00   0.00000000000000E+00   4.95496151098575E-14   1.86927625980792E-21   4.95496169791337E-14
      3.13397425601217E-15
      1.00000000000000E+00
     -1.99000000000000E+01  -1.99000000000000E+01   0.00000000000000E+00   0.00000000000000E+00  -5.48500045613055E-21
     -4.99383388738951E-14  -4.99383443588956E-14  -3.50251463342316E-15   0.00000000000000E+00   0.00000000000000E+00
      0.00000000000000E+00   0.00000000000000E+00   4.99383424941022E-14   1.86479400324726E-21   4.99383443588962E-14
      3.50251463342317E-15
      0.00000000000000E+00
     -1.99000000000000E+01  -1.99000000000000E+01   0.00000000000000E+00   0.00000000000000E+00  -5.50936921057843E-21
     -4.99383388794035E-14  -4.99383443887727E-14  -3.50251463342316E-15   0.00000000000000E+00   0.00000000000000E+00
      0.00000000000000E+00   0.00000000000000E+00   4.99383425184685E-14   1.87030485102593E-21   4.99383443887733E-14
      3.50251463342316E-15
      1.00000000000000E+00
     -2.00000000000000E+01  -2.00000000000000E+01   0.00000000000000E+00   0.00000000000000E+00  -5.50910193917390E-21
     -4.99539360090529E-14  -4.99539415181548E-14  -3.51946323518462E-15   0.00000000000000E+00   0.00000000000000E+00
      0.00000000000000E+00   0.00000000000000E+00   4.99539397627585E-14   1.75539697514095E-21   4.99539415181555E-14
      3.51946323518461E-15
      0.00000000000000E+00
     -2.00000000000000E+01  -2.00000000000000E+01   0.00000000000000E+00   0.00000000000000E+00  -5.50937357875741E-21
     -4.99539361221266E-14  -4.99539416315002E-14  -3.51946323345212E-15   0.00000000000000E+00   0.00000000000000E+00
      0.00000000000000E+00   0.00000000000000E+00   4.99539397611933E-14   1.87030740236804E-21   4.99539416315007E-14
      3.51946323345212E-15
      1.00000000000000E-01
     -2.19900000000000E+01  -2.19900000000000E+01   0.00000000000000E+00   0.00000000000000E+00  -5.45802798749816E-21
     -5.02178362638280E-14  -5.02178417218559E-14  -3.85669751973505E-15   0.00000000000000E+00   0.00000000000000E+00
      0.00000000000000E+00   0.00000000000000E+00   5.02178398751392E-14   1.84671654834219E-21   5.02178417218557E-14
      3.85669751973505E-15
      2.32222222222222E-01
     -2.46212222222222E+01  -2.46212222222222E+01   0.00000000000000E+00   0.00000000000000E+00  -5.00720076690209E-21
     -5.04949189467847E-14  -5.04949239539854E-14  -4.30250368992505E-15   0.00000000000000E+00   0.00000000000000E+00
      0.00000000000000E+00   0.00000000000000E+00   5.04949224730034E-14   1.48098113717631E-21   5.04949239539845E-14
      4.30250368992505E-15
      4.07049382716049E-01
     -2.81002827160494E+01  -2.81002827160494E+01   0.00000000000000E+00   0.00000000000000E+00  -4.35619183965580E-21
     -5.08452528483961E-14  -5.08452572045879E-14  -4.89184374206058E-15   0.00000000000000E+00   0.00000000000000E+00
      0.00000000000000E+00   0.00000000000000E+00   5.08452564724729E-14   7.32115514158529E-22   5.08452572045884E-14
      4.89184374206059E-15
      6.38209739368999E-01
     -3.27003738134431E+01  -3.27003738134431E+01   0.00000000000000E+00   0.00000000000000E+00  -5.50915029810587E-21
     -5.13680404325542E-14  -5.13680459417045E-14  -5.67091503419800E-15   0.00000000000000E+00   0.00000000000000E+00
      0.00000000000000E+00   0.00000000000000E+00   5.13680440712091E-14   1.87049522015089E-21   5.13680459417043E-14
      5.67091503419801E-15
      9.33581306203323E-01
     -3.85782679934461E+01  -3.85782679934461E+01   0.00000000000000E+00   0.00000000000000E+00  -5.50986880505288E-21
     -5.21207512335550E-14  -5.21207567434238E-14  -6.66612341807637E-15   0.00000000000000E+00   0.00000000000000E+00
      0.00000000000000E+00   0.00000000000000E+00   5.21207548726438E-14   1.87078001814341E-21   5.21207567434238E-14
      6.66612341807637E-15
      1.00000000000000E+00
     -3.99000000000000E+01  -3.99000000000000E+01   0.00000000000000E+00   0.00000000000000E+00  -5.49281367476692E-21
     -5.22762985266879E-14  -5.22763040195015E-14  -6.88986443976171E-15   0.00000000000000E+00   0.00000000000000E+00
      0.00000000000000E+00   0.00000000000000E+00   5.22763022227359E-14   1.79676554805311E-21   5.22763040195015E-14
      6.88986443976170E-15
      0.00000000000000E+00
     -3.99000000000000E+01  -3.99000000000000E+01   0.00000000000000E+00   0.00000000000000E+00  -5.51062980099395E-21
     -5.22762985973957E-14  -5.22763041080255E-14  -6.88986443808652E-15   0.00000000000000E+00   0.00000000000000E+00
      0.00000000000000E+00   0.00000000000000E+00   5.22763022371687E-14   1.87085651554027E-21   5.22763041080252E-14
      6.88986443808650E-15
      1.00000000000000E+00
     -4.00000000000000E+01  -4.00000000000000E+01   0.00000000000000E+00   0.00000000000000E+00  -5.51052620679707E-21
     -5.22876100731234E-14  -5.22876155836496E-14  -6.90679157310305E-15   0.00000000000000E+00   0.00000000000000E+00
      0.00000000000000E+00   0.00000000000000E+00   5.22876137129821E-14   1.87066742712402E-21   5.22876155836495E-14
      6.90679157310306E-15
      0.00000000000000E+00
     -4.00000000000000E+01  -4.00000000000000E+01   0.00000000000000E+00   0.00000000000000E+00  -5.51063796058077E-21
     -5.22876100721608E-14  -5.22876155827988E-14  -6.90679157137352E-15   0.00000000000000E+00   0.00000000000000E+00
      0.00000000000000E+00   0.00000000000000E+00   5.22876137119392E-14   1.87085959974089E-21   5.22876155827988E-14
      6.90679157137354E-15
      2.00000000000000E-01
     -4.19800000000000E+01  -4.19800000000000E+01   0.00000000000000E+00   0.00000000000000E+00  -5.12576508153317E-21
     -5.24983328291069E-14  -5.24983379548720E-14  -7.24192722705795E-15   0.00000000000000E+00   0.00000000000000E+00
      0.00000000000000E+00   0.00000000000000E+00   5.24983580412601E-14  -2.00863882001635E-20   5.24983379548719E-14
      7.24192722705795E-15
      4.73333333333333E-01
     -4.46860000000000E+01  -4.46860000000000E+01   0.00000000000000E+00   0.00000000000000E+00  -5.51104870352716E-21
     -5.27531150224249E-14  -5.27531205334736E-14  -7.69987754999609E-15   0.00000000000000E+00   0.00000000000000E+00
      0.00000000000000E+00   0.00000000000000E+00   5.27531186627984E-14   1.87067541639492E-21   5.27531205334738E-14
      7.69987754999608E-15
      8.34740740740741E-01
     -4.82639333333333E+01  -4.82639333333333E+01   0.00000000000000E+00   0.00000000000000E+00  -5.51140457537469E-21
     -5.30568487913575E-14  -5.30568543027621E-14  -8.30525988781658E-15   0.00000000000000E+00   0.00000000000000E+00
      0.00000000000000E+00   0.00000000000000E+00   5.30568524316217E-14   1.87114017479280E-21   5.30568543027619E-14
      8.30525988781659E-15
      1.00000000000000E+00
     -4.99000000000000E+01  -4.99000000000000E+01   0.00000000000000E+00   0.00000000000000E+00  -5.51166766847621E-21
     -5.31893837616891E-14  -5.31893892733568E-14  -8.58202704617231E-15   0.00000000000000E+00   0.00000000000000E+00
      0.00000000000000E+00   0.00000000000000E+00   5.31893886700345E-14   6.03322106464903E-22   5.31893892733566E-14
      8.58202704617231E-15
      0.00000000000000E+00
     -4.99000000000000E+01  -4.99000000000000E+01   0.00000000000000E+00   0.00000000000000E+00  -5.51157521566236E-21
     -5.31893850278118E-14  -5.31893905393870E-14  -8.58202704412592E-15   0.00000000000000E+00   0.00000000000000E+00
      0.00000000000000E+00   0.00000000000000E+00   5.31893886681866E-14   1.87120047799721E-21   5.31893905393871E-14
      8.58202704412592E-15
      1.00000000000000E+00
     -5.00000000000000E+01  -5.00000000000000E+01   0.00000000000000E+00   0.00000000000000E+00  -5.51150656767039E-21
     -5.31974061865296E-14  -5.31974116980361E-14  -8.59894250353920E-15   0.00000000000000E+00   0.00000000000000E+00
      0.00000000000000E+00   0.00000000000000E+00   5.31974098269502E-14   1.87108656908264E-21   5.31974116980367E-14
      8.59894250353921E-15
      0.00000000000000E+00
     -5.00000000000000E+01  -5.00000000000000E+01   0.00000000000000E+00   0.00000000000000E+00  -5.51158584757687E-21
     -5.31974061858278E-14  -5.31974116974137E-14  -8.59894250181185E-15   0.00000000000000E+00   0.00000000000000E+00
      0.00000000000000E+00   0.00000000000000E+00   5.31974098262097E-14   1.87120421250429E-21   5.31974116974139E-14
      8.59894250181185E-15
      2.00000000000000E-01
     -5.19800000000000E+01  -5.19800000000000E+01   0.00000000000000E+00   0.00000000000000E+00  -5.51520495503135E-21
     -5.33547896620178E-14  -5.33547951772228E-14  -8.93383959407861E-15   0.00000000000000E+00   0.00000000000000E+00
      0.00000000000000E+00   0.00000000000000E+00   5.33548142513075E-14  -1.90740850524915E-20   5.33547951772224E-14
      8.93383959407864E-15
      4.73333333333333E-01
     -5.46860000000000E+01  -5.46860000000000E+01   0.00000000000000E+00   0.00000000000000E+00  -5.51210748819122E-21
     -5.35667495400606E-14  -5.35667550521681E-14  -9.39143622055855E-15   0.00000000000000E+00   0.00000000000000E+00
      0.00000000000000E+00   0.00000000000000E+00   5.35667531812340E-14   1.87093463710415E-21   5.35667550521686E-14
      9.39143622055854E-15
      8.34740740740741E-01
     -5.82639333333333E+01  -5.82639333333333E+01   0.00000000000000E+00   0.00000000000000E+00  -5.51254529528466E-21
     -5.38437968618558E-14  -5.38438023744011E-14  -9.99628359176634E-15   0.00000000000000E+00   0.00000000000000E+00
      0.00000000000000E+00   0.00000000000000E+00   5.38438005028653E-14   1.87153633346974E-21   5.38438023744016E-14
      9.99628359176633E-15
      1.00000000000000E+00
     -5.99000000000000E+01  -5.99000000000000E+01   0.00000000000000E+00   0.00000000000000E+00  -5.51275480773402E-21
     -5.39699566841039E-14  -5.39699621968587E-14  -1.02727721824995E-14   0.00000000000000E+00   0.00000000000000E+00
      0.00000000000000E+00   0.00000000000000E+00   5.39699603252510E-14   1.87160824146837E-21   5.39699621968593E-14
      1.02727721824995E-14
      0.00000000000000E+00