DF-ISE text

Info {
  version   = 1.0
  type      = xyplot
  datasets  = [
    "time"
    "implant_electrode OuterVoltage" "implant_electrode InnerVoltage" "implant_electrode QuasiFermiPotential" "implant_electrode DisplacementCurrent" "implant_electrode eCurrent"
    "implant_electrode hCurrent" "implant_electrode TotalCurrent" "implant_electrode Charge" "backside_electrode OuterVoltage" "backside_electrode InnerVoltage"
    "backside_electrode QuasiFermiPotential" "backside_electrode DisplacementCurrent" "backside_electrode eCurrent" "backside_electrode hCurrent" "backside_electrode TotalCurrent"
    "backside_electrode Charge" ]
  functions = [
    Time
    OuterVoltage InnerVoltage QuasiFermiPotential DisplacementCurrent eCurrent
    hCurrent TotalCurrent Charge OuterVoltage InnerVoltage
    QuasiFermiPotential DisplacementCurrent eCurrent hCurrent TotalCurrent
    Charge ]
}

Data {
      0.00000000000000E+00
      0.00000000000000E+00   0.00000000000000E+00   0.00000000000000E+00   0.00000000000000E+00   1.81597891183477E-21
      6.60046975754348E-26   1.81604491653235E-21  -2.26095845784755E-15   0.00000000000000E+00   0.00000000000000E+00
      0.00000000000000E+00   0.00000000000000E+00  -1.80995370427432E-21  -6.09121225828755E-24  -1.81604491653261E-21
      2.26095845782585E-15
      0.00000000000000E+00
      0.00000000000000E+00   0.00000000000000E+00   0.00000000000000E+00   0.00000000000000E+00  -2.64726079955872E-15
     -3.68961117592204E-22  -2.64726116851984E-15  -2.26094451232582E-15   0.00000000000000E+00   0.00000000000000E+00
      0.00000000000000E+00   0.00000000000000E+00   2.64726092637687E-15   2.42145686503041E-22   2.64726116852256E-15
      2.26094451229843E-15
      1.00000000000000E-03
      0.00000000000000E+00   0.00000000000000E+00   0.00000000000000E+00   0.00000000000000E+00   1.90569530875834E-11
      2.64821738768870E-23   1.90569530876099E-11   2.17697785843167E-15  -1.00000000000000E+00  -1.00000000000000E+00
      0.00000000000000E+00   0.00000000000000E+00  -3.02726267800903E-22  -1.90569530873335E-11  -1.90569530876362E-11
     -2.17697785856568E-15
      2.22222222222222E-03
      0.00000000000000E+00   0.00000000000000E+00   0.00000000000000E+00   0.00000000000000E+00   3.41112132129392E-11
     -1.22671914356855E-19   3.41112130902673E-11   3.58447613946228E-14  -2.22222222222222E+00  -2.22222222222222E+00
      0.00000000000000E+00   0.00000000000000E+00   3.71153051916196E-18  -3.41112168018035E-11  -3.41112130902730E-11
     -3.58447613946035E-14
      3.71604938271605E-03
      0.00000000000000E+00   0.00000000000000E+00   0.00000000000000E+00   0.00000000000000E+00   4.51550194527013E-11
      3.54659914792902E-23   4.51550194527367E-11   8.51911738771834E-14  -3.71604938271605E+00  -3.71604938271605E+00
      0.00000000000000E+00   0.00000000000000E+00   8.88642551926521E-24  -4.51550194528285E-11  -4.51550194528196E-11
     -8.51911738770459E-14
      5.54183813443073E-03
      0.00000000000000E+00   0.00000000000000E+00   0.00000000000000E+00   0.00000000000000E+00   5.53798569442400E-11
     -1.33805386884405E-22   5.53798569441062E-11   1.30290992599766E-13  -5.54183813443073E+00  -5.54183813443073E+00
      0.00000000000000E+00   0.00000000000000E+00   3.61579676921177E-19  -5.53798573057440E-11  -5.53798569441643E-11
     -1.30290992599827E-13
      7.85450388660265E-03
      0.00000000000000E+00   0.00000000000000E+00   0.00000000000000E+00   0.00000000000000E+00   6.54066695760292E-11
      3.49005353687499E-23   6.54066695760641E-11   1.78239760996489E-13  -7.85450388660265E+00  -7.85450388660265E+00
      0.00000000000000E+00   0.00000000000000E+00   4.67655671774138E-21  -6.54066695807546E-11  -6.54066695760780E-11
     -1.78239760996439E-13
      1.07838805060204E-02
      0.00000000000000E+00   0.00000000000000E+00   0.00000000000000E+00   0.00000000000000E+00   7.56326864095709E-11
      3.16192420264271E-23   7.56326864096025E-11   2.30065709533644E-13  -1.07838805060204E+01  -1.07838805060204E+01
      0.00000000000000E+00   0.00000000000000E+00   5.44493956067758E-21  -7.56326864150322E-11  -7.56326864095873E-11
     -2.30065709533465E-13
      1.44944242239496E-02
      0.00000000000000E+00   0.00000000000000E+00   0.00000000000000E+00   0.00000000000000E+00   8.62780363264757E-11
      3.24372030644954E-23   8.62780363265082E-11   2.85597358785421E-13  -1.44944242239496E+01  -1.44944242239496E+01
      0.00000000000000E+00   0.00000000000000E+00   1.98795204615267E-21  -8.62780363284415E-11  -8.62780363264535E-11
     -2.85597358785111E-13
      1.91944462666599E-02
      0.00000000000000E+00   0.00000000000000E+00   0.00000000000000E+00   0.00000000000000E+00   9.76317199490177E-11
      3.65980260132987E-23   9.76317199490543E-11   3.46452433454486E-13  -1.91944462666599E+01  -1.91944462666599E+01
      0.00000000000000E+00   0.00000000000000E+00   1.19590698576458E-20  -9.76317199611496E-11  -9.76317199491905E-11
     -3.46452433454714E-13
      2.51478075207596E-02
      0.00000000000000E+00   0.00000000000000E+00   0.00000000000000E+00   0.00000000000000E+00   1.10097335831594E-10
      1.10460148340324E-22   1.10097335831704E-10   4.14946862555557E-13  -2.51478075207596E+01  -2.51478075207596E+01
      0.00000000000000E+00   0.00000000000000E+00   5.49403564797551E-22  -1.10097335832345E-10  -1.10097335831796E-10
     -4.14946862555589E-13
      3.21595441089215E-02
      0.00000000000000E+00   0.00000000000000E+00   0.00000000000000E+00   0.00000000000000E+00   1.23272261521809E-10
     -1.67626138013130E-21   1.23272261520133E-10   4.86961216493554E-13  -3.21595441089215E+01  -3.21595441089215E+01
      0.00000000000000E+00   0.00000000000000E+00   9.36255249597182E-21  -1.23272261529574E-10  -1.23272261520212E-10
     -4.86961216493423E-13
      4.10410771205932E-02
      0.00000000000000E+00   0.00000000000000E+00   0.00000000000000E+00   0.00000000000000E+00   1.39124324198084E-10
      8.10569111665375E-24   1.39124324198092E-10   5.67870408556981E-13  -4.10410771205932E+01  -4.10410771205932E+01
      0.00000000000000E+00   0.00000000000000E+00   1.82901118507786E-22  -1.39124324197836E-10  -1.39124324197654E-10
     -5.67870408557359E-13
      5.18962841348586E-02
      0.00000000000000E+00   0.00000000000000E+00   0.00000000000000E+00   0.00000000000000E+00   1.57136193599161E-10
      3.74744418611506E-23   1.57136193599198E-10   6.56070440083974E-13  -5.18962841348586E+01  -5.18962841348586E+01
      0.00000000000000E+00   0.00000000000000E+00   1.92184970789716E-21  -1.57136193600672E-10  -1.57136193598750E-10
     -6.56070440084073E-13
      6.56462130195948E-02
      0.00000000000000E+00   0.00000000000000E+00   0.00000000000000E+00   0.00000000000000E+00   1.75528415874325E-10
      5.72663526976896E-19   1.75528416446989E-10   7.59301420832879E-13  -6.56462130195948E+01  -6.56462130195948E+01
      0.00000000000000E+00   0.00000000000000E+00  -7.50058602670635E-17  -1.75528341441073E-10  -1.75528416446933E-10
     -7.59301420832726E-13
      8.30627896069273E-02
      0.00000000000000E+00   0.00000000000000E+00   0.00000000000000E+00   0.00000000000000E+00   1.94372816632909E-10
     -1.74222331810993E-17   1.94372799210675E-10   8.79217837609352E-13  -8.30627896069273E+01  -8.30627896069273E+01
      0.00000000000000E+00   0.00000000000000E+00   2.33663880090716E-15  -1.94375135849482E-10  -1.94372799210681E-10
     -8.79217837608970E-13
      1.05897856688097E-01
      0.00000000000000E+00   0.00000000000000E+00   0.00000000000000E+00   0.00000000000000E+00   2.14861364661315E-10
      8.62205454334943E-20   2.14861364747536E-10   1.02235601918831E-12  -1.05897856688097E+02  -1.05897856688097E+02
      0.00000000000000E+00   0.00000000000000E+00   4.23472348978286E-17  -2.14861407094741E-10  -2.14861364747506E-10
     -1.02235601918859E-12
      1.34822274990911E-01
      0.00000000000000E+00   0.00000000000000E+00   0.00000000000000E+00   0.00000000000000E+00   2.36856242276899E-10
      2.18383317513467E-18   2.36856244460733E-10   1.18668994975511E-12  -1.34822274990911E+02  -1.34822274990911E+02
      0.00000000000000E+00   0.00000000000000E+00  -4.19617630776976E-22  -2.36856244460269E-10  -2.36856244460689E-10
     -1.18668994975569E-12
      1.65032222996073E-01
      0.00000000000000E+00   0.00000000000000E+00   0.00000000000000E+00   0.00000000000000E+00   2.56723219923687E-10
      3.51270539077715E-18   2.56723223436392E-10   1.34336807151601E-12  -1.65032222996073E+02  -1.65032222996073E+02
      0.00000000000000E+00   0.00000000000000E+00   4.90389962801051E-19  -2.56723223926733E-10  -2.56723223436343E-10
     -1.34336807151589E-12
      2.03298157135944E-01
      0.00000000000000E+00   0.00000000000000E+00   0.00000000000000E+00   0.00000000000000E+00   2.78614477553202E-10
      4.41452379107897E-17   2.78614521698440E-10   1.52559267071990E-12  -2.03298157135944E+02  -2.03298157135944E+02
      0.00000000000000E+00   0.00000000000000E+00  -7.98907825814430E-20  -2.78614521618486E-10  -2.78614521698377E-10
     -1.52559267071964E-12
      2.43264799459810E-01
      0.00000000000000E+00   0.00000000000000E+00   0.00000000000000E+00   0.00000000000000E+00   2.98496751115427E-10
     -9.31842215300537E-19   2.98496750183585E-10   1.70098399165621E-12  -2.43264799459810E+02  -2.43264799459810E+02
      0.00000000000000E+00   0.00000000000000E+00   2.42405659097758E-21  -2.98496750185930E-10  -2.98496750183506E-10
     -1.70098399165682E-12
      2.83264799459810E-01
      0.00000000000000E+00   0.00000000000000E+00   0.00000000000000E+00   0.00000000000000E+00   3.16027709321893E-10
      4.09338942811873E-16   3.16028118660836E-10   1.86413867547550E-12  -2.83264799459810E+02  -2.83264799459810E+02
      0.00000000000000E+00   0.00000000000000E+00   7.38011607831240E-18  -3.16028126040861E-10  -3.16028118660745E-10
     -1.86413867547591E-12
      3.23264799459810E-01
      0.00000000000000E+00   0.00000000000000E+00   0.00000000000000E+00   0.00000000000000E+00   3.31798757451540E-10
      5.22079340327851E-16   3.31799279530881E-10   2.01624818175823E-12  -3.23264799459810E+02  -3.23264799459810E+02
      0.00000000000000E+00   0.00000000000000E+00   1.28637119697014E-16  -3.31799408167910E-10  -3.31799279530790E-10
     -2.01624818175825E-12
      3.63264799459810E-01
      0.00000000000000E+00   0.00000000000000E+00   0.00000000000000E+00   0.00000000000000E+00   3.46435742862536E-10
     -3.00086801791211E-17   3.46435712853856E-10   2.15757574936322E-12  -3.63264799459810E+02  -3.63264799459810E+02
      0.00000000000000E+00   0.00000000000000E+00   7.36976393886789E-17  -3.46435786551404E-10  -3.46435712853764E-10
     -2.15757574936283E-12
      4.03264799459810E-01
      0.00000000000000E+00   0.00000000000000E+00   0.00000000000000E+00   0.00000000000000E+00   3.60530076677110E-10
     -4.45762205299769E-17   3.60530032100889E-10   2.28769469653343E-12  -4.03264799459810E+02  -4.03264799459810E+02
      0.00000000000000E+00   0.00000000000000E+00   7.77675847542584E-20  -3.60530032178553E-10  -3.60530032100786E-10
     -2.28769469653274E-12
      4.43264799459810E-01
      0.00000000000000E+00   0.00000000000000E+00   0.00000000000000E+00   0.00000000000000E+00   3.74532648507146E-10
      2.55266166838126E-16   3.74532903773313E-10   2.40595391954559E-12  -4.43264799459810E+02  -4.43264799459810E+02
      0.00000000000000E+00   0.00000000000000E+00   9.22545179214014E-18  -3.74532912998658E-10  -3.74532903773206E-10
     -2.40595391954456E-12
      4.83264799459810E-01
      0.00000000000000E+00   0.00000000000000E+00   0.00000000000000E+00   0.00000000000000E+00   3.88695872281906E-10
     -4.66666493324026E-17   3.88695825615256E-10   2.51189437907695E-12  -4.83264799459810E+02  -4.83264799459810E+02
      0.00000000000000E+00   0.00000000000000E+00   7.16333878514745E-18  -3.88695832778482E-10  -3.88695825615143E-10
     -2.51189437907549E-12
      5.00000000000000E-01
      0.00000000000000E+00   0.00000000000000E+00   0.00000000000000E+00   0.00000000000000E+00   3.94691921527313E-10
     -1.66727628129784E-16   3.94691754799685E-10   2.55254642943268E-12  -5.00000000000000E+02  -5.00000000000000E+02
      0.00000000000000E+00   0.00000000000000E+00   4.33730683124483E-17  -3.94691798172636E-10  -3.94691754799568E-10
     -2.55254642943167E-12
      5.40000000000000E-01
      0.00000000000000E+00   0.00000000000000E+00   0.00000000000000E+00   0.00000000000000E+00   4.09183266692564E-10
     -1.55457715363302E-16   4.09183111234849E-10   2.64117184391780E-12  -5.40000000000000E+02  -5.40000000000000E+02
      0.00000000000000E+00   0.00000000000000E+00   4.25415162455661E-22  -4.09183111235144E-10  -4.09183111234718E-10
     -2.64117184391625E-12
      5.80000000000000E-01
      0.00000000000000E+00   0.00000000000000E+00   0.00000000000000E+00   0.00000000000000E+00   4.23839015946674E-10
     -6.01225241346332E-15   4.23833003694260E-10   2.71845677852491E-12  -5.80000000000000E+02  -5.80000000000000E+02
      0.00000000000000E+00   0.00000000000000E+00   5.39700448659968E-17  -4.23833057664183E-10  -4.23833003694138E-10
     -2.71845677852564E-12
      6.00000000000000E-01
      0.00000000000000E+00   0.00000000000000E+00   0.00000000000000E+00   0.00000000000000E+00   4.31191559814415E-10
     -3.43660816113381E-16   4.31191216153599E-10   2.75314996615892E-12  -6.00000000000000E+02  -6.00000000000000E+02
      0.00000000000000E+00   0.00000000000000E+00   7.76258738972754E-19  -4.31191216929739E-10  -4.31191216153480E-10
     -2.75314996615944E-12
      6.40000000000000E-01
      0.00000000000000E+00   0.00000000000000E+00   0.00000000000000E+00   0.00000000000000E+00   4.45877109118228E-10
     -8.88282955320507E-15   4.45868226288675E-10   2.81550045742441E-12  -6.40000000000000E+02  -6.40000000000000E+02
      0.00000000000000E+00   0.00000000000000E+00   2.71418628123962E-18  -4.45868229002732E-10  -4.45868226288546E-10
     -2.81550045742498E-12
      6.80000000000000E-01
      0.00000000000000E+00   0.00000000000000E+00   0.00000000000000E+00   0.00000000000000E+00   4.60406639017582E-10
      4.85422020678211E-15   4.60411493237789E-10   2.86935693917814E-12  -6.80000000000000E+02  -6.80000000000000E+02
      0.00000000000000E+00   0.00000000000000E+00   6.29596040318602E-16  -4.60412122833682E-10  -4.60411493237642E-10
     -2.86935693917881E-12
      7.00000000000000E-01
      0.00000000000000E+00   0.00000000000000E+00   0.00000000000000E+00   0.00000000000000E+00   4.67582900057302E-10
     -5.63841463297632E-16   4.67582336215839E-10   2.89352057962098E-12  -7.00000000000000E+02  -7.00000000000000E+02
      0.00000000000000E+00   0.00000000000000E+00   8.01206277819690E-22  -4.67582336216493E-10  -4.67582336215691E-10
     -2.89352057962090E-12
      7.40000000000000E-01
      0.00000000000000E+00   0.00000000000000E+00   0.00000000000000E+00   0.00000000000000E+00   4.81659855799780E-10
     -6.59265657910783E-16   4.81659196534122E-10   2.93692303905801E-12  -7.40000000000000E+02  -7.40000000000000E+02
      0.00000000000000E+00   0.00000000000000E+00   2.19977939441818E-17  -4.81659218531782E-10  -4.81659196533988E-10
     -2.93692303905817E-12
      7.80000000000000E-01
      0.00000000000000E+00   0.00000000000000E+00   0.00000000000000E+00   0.00000000000000E+00   4.95283340267954E-10
     -7.84285144034592E-16   4.95282555982810E-10   2.97459984958768E-12  -7.80000000000000E+02  -7.80000000000000E+02
      0.00000000000000E+00   0.00000000000000E+00   3.36724164826784E-23  -4.95282555982698E-10  -4.95282555982664E-10
     -2.97459984958758E-12
      8.00000000000000E-01
      0.00000000000000E+00   0.00000000000000E+00   0.00000000000000E+00   0.00000000000000E+00   5.01890976684083E-10
     -8.33924087675093E-16   5.01890142759996E-10   2.99155831404588E-12  -8.00000000000000E+02  -8.00000000000000E+02
      0.00000000000000E+00   0.00000000000000E+00  -3.22371671628078E-22  -5.01890142759518E-10  -5.01890142759841E-10
     -2.99155831404525E-12
      8.40000000000000E-01
      0.00000000000000E+00   0.00000000000000E+00   0.00000000000000E+00   0.00000000000000E+00   5.14638746024056E-10
     -9.72259495983679E-16   5.14637773764560E-10   3.02216952668501E-12  -8.40000000000000E+02  -8.40000000000000E+02
      0.00000000000000E+00   0.00000000000000E+00   2.83563854038917E-16  -5.14638057328261E-10  -5.14637773764407E-10
     -3.02216952668398E-12
      8.80000000000000E-01
      0.00000000000000E+00   0.00000000000000E+00   0.00000000000000E+00   0.00000000000000E+00   5.26705950411113E-10
     -1.02643267593277E-15   5.26704923978437E-10   3.04890502497785E-12  -8.80000000000000E+02  -8.80000000000000E+02
      0.00000000000000E+00   0.00000000000000E+00   1.28374909908296E-20  -5.26704923991110E-10  -5.26704923978273E-10
     -3.04890502497734E-12
      9.00000000000000E-01
      0.00000000000000E+00   0.00000000000000E+00   0.00000000000000E+00   0.00000000000000E+00   5.32472247763371E-10
     -1.07250213560221E-15   5.32471175261236E-10   3.06100902380887E-12  -9.00000000000000E+02  -9.00000000000000E+02
      0.00000000000000E+00   0.00000000000000E+00  -5.95289241224640E-22  -5.32471175260471E-10  -5.32471175261067E-10
     -3.06100902381132E-12
      9.40000000000000E-01
      0.00000000000000E+00   0.00000000000000E+00   0.00000000000000E+00   0.00000000000000E+00   5.43473287633984E-10
     -1.15717859322157E-15   5.43472130455391E-10   3.08302605340067E-12  -9.40000000000000E+02  -9.40000000000000E+02
      0.00000000000000E+00   0.00000000000000E+00  -2.10821907615844E-17  -5.43472109373018E-10  -5.43472130455209E-10
     -3.08302605340201E-12
      9.80000000000000E-01
      0.00000000000000E+00   0.00000000000000E+00   0.00000000000000E+00   0.00000000000000E+00   5.53801153380088E-10
     -1.24692852545030E-15   5.53799906451563E-10   3.10250809374069E-12  -9.80000000000000E+02  -9.80000000000000E+02
      0.00000000000000E+00   0.00000000000000E+00  -4.80267102449160E-22  -5.53799906450922E-10  -5.53799906451402E-10
     -3.10250809374196E-12
      1.00000000000000E+00
      0.00000000000000E+00   0.00000000000000E+00   0.00000000000000E+00   0.00000000000000E+00   5.58734767583684E-10
     -1.28813605431128E-15   5.58733479447629E-10   3.11145465013575E-12  -1.00000000000000E+03  -1.00000000000000E+03
      0.00000000000000E+00   0.00000000000000E+00   1.73593384819134E-19  -5.58733479621052E-10  -5.58733479447459E-10
     -3.11145465013560E-12
}
