DF-ISE text

Info {
  version = 1.0
  type    = dataset
  dimension   = 3
  nb_vertices = 5293
  nb_edges    = 23303
  nb_faces    = 30690
  nb_elements = 12980
  nb_regions  = 3
  datasets    = [ "ElectrostaticPotential" "ContactExternalVoltage" "ContactCurrentFlux" "ContactCharge" "eQuasiFermiPotential" "hQuasiFermiPotential" "QuasiFermiPotential" "LatticeTemperature" ]
  functions   = [ ElectrostaticPotential ContactExternalVoltage ContactCurrentFlux ContactCharge eQuasiFermiPotential hQuasiFermiPotential QuasiFermiPotential LatticeTemperature ]
}

Data {

  Dataset ("ElectrostaticPotential") {
    function  = ElectrostaticPotential
    type      = scalar
    dimension = 1
    location  = vertex
    validity  = [ "substrate" ]
    Values (5293) {
 -3.5037888985310792e+02 -3.5037067152404057e+02 -3.5037888985310792e+02 -3.5037888985310792e+02 -3.5037067207183776e+02 -3.5037067166098552e+02 -3.5039459903196263e+02 -3.5038638155161487e+02 -3.5035550501019810e+02 -3.5035550609422398e+02
 -3.5035550528037601e+02 -3.5037121854731157e+02 -3.5032316277262152e+02 -3.5032319061432173e+02 -3.5032316823928306e+02 -3.5033906491376331e+02 -3.5018858404676882e+02 -3.5019893196171296e+02 -3.5019050890614074e+02 -3.5027464420448200e+02
 -3.4888508639007813e+02 -3.4891223836187942e+02 -3.4888930338851537e+02 -3.4900107199053031e+02 -3.4751430076744543e+02 -3.4754888741232520e+02 -3.4751890497717733e+02 -3.4760276946902718e+02 -3.4614000170220191e+02 -3.4617737763260664e+02
 -3.4614424352191190e+02 -3.4620509238467173e+02 -3.5037888985310792e+02 -3.5037067166098922e+02 -3.5039459903196263e+02 -3.5038638168855294e+02 -3.5035550528071775e+02 -3.5037121881495108e+02 -3.5032316884221450e+02 -3.5033906624417125e+02
 -3.5019077564143777e+02 -3.5027483724554321e+02 -3.4889012491289589e+02 -3.4900680852671121e+02 -3.4752007230401961e+02 -3.4760983337064766e+02 -3.4614558744197871e+02 -3.4621179810638586e+02 -3.3507548003410739e+02 -3.3508755425927797e+02
 -3.3507602414775442e+02 -3.3508961948889078e+02 -3.3507609887939941e+02 -3.3509021461473077e+02 -3.5037888985310792e+02 -3.5037067207184157e+02 -3.5039459903196263e+02 -3.5038638158585093e+02 -3.5035550609555992e+02 -3.5037121861424868e+02
 -3.5032319304455558e+02 -3.5033906532478619e+02 -3.5020000893431154e+02 -3.5027476178520067e+02 -3.4891640179651159e+02 -3.4900604209521924e+02 -3.4755572937472044e+02 -3.4761102508185832e+02 -3.4618637261294742e+02 -3.4621562194556412e+02
 -3.5039459903196263e+02 -3.5038638172278939e+02 -3.5037121888189029e+02 -3.5033906665753415e+02 -3.5027495704797747e+02 -3.4901201379346213e+02 -3.4761849476192208e+02 -3.4622283682478076e+02 -3.3509486785578804e+02 -3.3509714047321279e+02
 -3.3509779303457725e+02 -3.5037888985310792e+02 -3.5037067166098512e+02 -3.5039459903196263e+02 -3.5038638153669001e+02 -3.5035550528003546e+02 -3.5037121851811145e+02 -3.5032316761613532e+02 -3.5033906467140690e+02 -3.5019023309491558e+02
 -3.5027454210302380e+02 -3.4888843724315780e+02 -3.4899807600756969e+02 -3.4751756180850890e+02 -3.4759842054196088e+02 -3.4614254453245616e+02 -3.4620015025074974e+02 -3.5037888985310792e+02 -3.5037067150911463e+02 -3.5037717774777701e+02
 -3.5036895992180411e+02 -3.5035550497959491e+02 -3.5035379342375444e+02 -3.5032316005875492e+02 -3.5032137003541351e+02 -3.5018743943517984e+02 -3.5015901151757578e+02 -3.4888260604529972e+02 -3.4888111306916517e+02 -3.4751117806920752e+02
 -3.4752738118937509e+02 -3.4613658869448949e+02 -3.4616319134755884e+02 -3.3507516094494980e+02 -3.3508808538942742e+02 -3.3507415140668041e+02 -3.3508494212036112e+02 -3.5039459903196263e+02 -3.5038638157092601e+02 -3.5037121858504725e+02
 -3.5033906507888202e+02 -3.5027465647284697e+02 -3.4900282958969552e+02 -3.4760628068873285e+02 -3.4621014928941418e+02 -3.5037717774777701e+02 -3.5036895991376014e+02 -3.5035379340986697e+02 -3.5032137310701484e+02 -3.5016029667111462e+02
 -3.4888472196851023e+02 -3.4753329290983822e+02 -3.4617107190947308e+02 -3.3509537404391449e+02 -3.3509188727460707e+02 -3.2396760380154723e+02 -3.2397111647280974e+02 -3.2396763841444277e+02 -3.2397124816023620e+02 -3.2396757630593248e+02
 -3.2397121263862914e+02 -3.1283757211116847e+02 -3.1283867294778582e+02 -3.1283756686306623e+02 -3.1283867302331561e+02 -3.1283753792490558e+02 -3.1283864233720698e+02 -3.2397472817109690e+02 -3.2397487733838511e+02 -3.2397483539503656e+02
 -3.1284024935185471e+02 -3.1284024975514035e+02 -3.1284021488832713e+02 -3.2396736168000280e+02 -3.2397085928947195e+02 -3.2396720318267131e+02 -3.2397053909739560e+02 -3.1283748947076185e+02 -3.1283857749183778e+02 -3.1283746194073956e+02
 -3.1283853613456171e+02 -3.2397442675737329e+02 -3.2397406020553359e+02 -3.1284014008741184e+02 -3.1284009230017222e+02 -3.5037888985310792e+02 -3.5037067207184162e+02 -3.5039459903196263e+02 -3.5038638158585104e+02 -3.5035550609581463e+02
 -3.5037121861425328e+02 -3.5032319351283343e+02 -3.5033906534060179e+02 -3.5020021652194220e+02 -3.5027477583993181e+02 -3.4891723112578461e+02 -3.4900678874621047e+02 -3.4755715007953773e+02 -3.4761244314900654e+02 -3.4618831982535625e+02
 -3.4621762307215869e+02 -3.5039459903196263e+02 -3.5038638172278951e+02 -3.5037121888189478e+02 -3.5033906667305075e+02 -3.5027497086535880e+02 -3.4901276584505524e+02 -3.4761992760372823e+02 -3.4622486146281051e+02 -3.3509778223559613e+02
 -3.3510007013954748e+02 -3.3510071830744874e+02 -3.5037888985310792e+02 -3.5037067207184168e+02 -3.5039459903196263e+02 -3.5038638158585104e+02 -3.5035550609584527e+02 -3.5037121861425379e+02 -3.5032319356915440e+02 -3.5033906534243056e+02
 -3.5020024148949074e+02 -3.5027477746555957e+02 -3.4891733120613367e+02 -3.4900687515446259e+02 -3.4755732217705378e+02 -3.4761260885059158e+02 -3.4618855665555731e+02 -3.4621785903910643e+02 -3.5039459903196263e+02 -3.5038638172278951e+02
 -3.5037121888189529e+02 -3.5033906667481614e+02 -3.5027497243797330e+02 -3.4901285154121138e+02 -3.4762009260233685e+02 -3.4622509693183378e+02 -3.3509815237125827e+02 -3.3510044055683539e+02 -3.3510108624366143e+02 -3.5039459903196263e+02
 -3.5038638157092606e+02 -3.5037121858505185e+02 -3.5033906509465572e+02 -3.5027467046328348e+02 -3.4900355943091466e+02 -3.4760766203244350e+02 -3.4621209509322534e+02 -3.5037717774777701e+02 -3.5036895991376019e+02 -3.5035379341039362e+02
 -3.5032137400486107e+02 -3.5016066414785723e+02 -3.4888561446026648e+02 -3.4753470051881044e+02 -3.4617294681384755e+02 -3.3509825265041036e+02 -3.3509472750597564e+02 -3.5039459903196263e+02 -3.5038638157092606e+02 -3.5037121858505236e+02
 -3.5033906509649324e+02 -3.5027467209322145e+02 -3.4900364437811817e+02 -3.4760782423262822e+02 -3.4621232548410478e+02 -3.5037717774777701e+02 -3.5036895991376019e+02 -3.5035379341045933e+02 -3.5032137411687063e+02 -3.5016070999097531e+02
 -3.4888572520768616e+02 -3.4753487473440271e+02 -3.4617317870731239e+02 -3.3509861415597334e+02 -3.3509508505191951e+02 -3.2397663245353482e+02 -3.2397678219547828e+02 -3.2397673458408337e+02 -3.1284119948958437e+02 -3.1284119934991958e+02
 -3.1284116219705862e+02 -3.2397676877022860e+02 -3.2397691815540412e+02 -3.2397686889777333e+02 -3.1284113518016159e+02 -3.1284113482440875e+02 -3.1284109701409034e+02 -3.2397631205449773e+02 -3.2397593652541588e+02 -3.1284108387626236e+02
 -3.1284103419575791e+02 -3.2397644372103179e+02 -3.2397606675191776e+02 -3.1284101785563143e+02 -3.1284096776902851e+02 -3.0169052751299847e+02 -3.0169090003169515e+02 -3.0169052453207405e+02 -3.0169089714206490e+02 -3.0169051556411046e+02
 -3.0169088731492883e+02 -2.9052790849819860e+02 -2.9052802920310307e+02 -2.9052790770264789e+02 -2.9052802836628541e+02 -2.9052790564120107e+02 -2.9052802614528457e+02 -3.0169154035329740e+02 -3.0169153717003530e+02 -3.0169152614133981e+02
 -2.9052825539835868e+02 -2.9052825447995684e+02 -2.9052825202676098e+02 -3.0169050430467627e+02 -3.0169087394914936e+02 -3.0169049885394162e+02 -3.0169086712465622e+02 -2.9052790338937996e+02 -2.9052802365819952e+02 -2.9052790239555770e+02
 -2.9052802254001512e+02 -3.0169151095129149e+02 -3.0169150314984620e+02 -2.9052824926057895e+02 -2.9052824801136899e+02 -2.6815740562511064e+02 -2.6815743145119376e+02 -2.6815740554551041e+02 -2.6815743136771221e+02 -2.6815740534889710e+02
 -2.6815743116038499e+02 -2.6815748389651577e+02 -2.6815748380615332e+02 -2.6815748358122960e+02 -2.6815740514609752e+02 -2.6815743094507309e+02 -2.6815740506014572e+02 -2.6815743085335072e+02 -2.6815748334697082e+02 -2.6815748324697773e+02
 -3.0169192887074178e+02 -3.0169192545814144e+02 -3.0169191375440516e+02 -2.9052836956905145e+02 -2.9052836859498223e+02 -2.9052836599682121e+02 -3.0169178014520412e+02 -3.0169177665560426e+02 -3.0169176474607394e+02 -2.9052821808163770e+02
 -2.9052821708855430e+02 -2.9052821444249292e+02 -3.0169189772816418e+02 -3.0169188952730610e+02 -2.9052836307121373e+02 -2.9052836175142647e+02 -3.0169174848690767e+02 -3.0169174018100659e+02 -2.9052821146621676e+02 -2.9052821012459333e+02
 -2.6815751161035968e+02 -2.6815751151501809e+02 -2.6815751127772398e+02 -2.6815747139468670e+02 -2.6815747129752918e+02 -2.6815747105577634e+02 -2.6815751103060865e+02 -2.6815751092514211e+02 -2.6815747080409767e+02 -2.6815747069670965e+02
 -2.4572728569649726e+02 -2.4572731689965121e+02 -2.4572728568897776e+02 -2.4572731689185247e+02 -2.4572728567064502e+02 -2.4572731687282086e+02 -2.4572740121808661e+02 -2.4572740120976619e+02 -2.4572740118944836e+02 -2.4572728565201970e+02
 -2.4572731685345312e+02 -2.4572728564416897e+02 -2.4572731684528401e+02 -2.4572740116875650e+02 -2.4572740116002765e+02 -2.2323750333107543e+02 -2.2323757708432558e+02 -2.2323750333032635e+02 -2.2323757708355583e+02 -2.2323750332846970e+02
 -2.2323757708165482e+02 -2.2323778619347533e+02 -2.2323778619266679e+02 -2.2323778619067193e+02 -2.2323750332650229e+02 -2.2323757707964114e+02 -2.2323750332560337e+02 -2.2323757707872511e+02 -2.2323778618856343e+02 -2.2323778618760804e+02
 -2.4572751542657431e+02 -2.4572751541784325e+02 -2.4572751539652285e+02 -2.4572763209267868e+02 -2.4572763208377788e+02 -2.4572763206204473e+02 -2.4572751537481315e+02 -2.4572751536565821e+02 -2.4572763203991812e+02 -2.4572763203058955e+02
 -2.2323809663949436e+02 -2.2323809663865075e+02 -2.2323809663657090e+02 -2.2323845899614057e+02 -2.2323845899527080e+02 -2.2323845899312724e+02 -2.2323809663437717e+02 -2.2323809663338659e+02 -2.2323845899086922e+02 -2.2323845898985206e+02
 -2.0068771785330105e+02 -2.0068788275969968e+02 -2.0068771785329227e+02 -2.0068788275968811e+02 -2.0068771785322613e+02 -2.0068788275962103e+02 -2.0068835273691715e+02 -2.0068835273690209e+02 -2.0068835273682723e+02 -2.0068771785305222e+02
 -2.0068788275944516e+02 -2.0068771785289408e+02 -2.0068788275928830e+02 -2.0068835273664354e+02 -2.0068835273648367e+02 -1.7807719995617711e+02 -1.7807755498372234e+02 -1.7807719995761119e+02 -1.7807755498515513e+02 -1.7807719996102776e+02
 -1.7807755498857432e+02 -1.7807856846267461e+02 -1.7807856846410624e+02 -1.7807856846752316e+02 -1.7807719996433411e+02 -1.7807755499188198e+02 -1.7807719996561360e+02 -1.7807755499316389e+02 -1.7807856847082863e+02 -1.7807856847210991e+02
 -2.0068905712656246e+02 -2.0068905712654151e+02 -2.0068905712645244e+02 -2.0068988960747186e+02 -2.0068988960743576e+02 -2.0068988960730960e+02 -2.0068905712625480e+02 -2.0068905712608947e+02 -2.0068988960707449e+02 -2.0068988960689376e+02
 -1.7808009208079565e+02 -1.7808009208222066e+02 -1.7808009208562157e+02 -1.7808190003213858e+02 -1.7808190003354005e+02 -1.7808190003688367e+02 -1.7808009208891133e+02 -1.7808009209018635e+02 -1.7808190004011570e+02 -1.7808190004136705e+02
 -3.5037888985310792e+02 -3.5037067207184162e+02 -3.5039459903196263e+02 -3.5038638158585104e+02 -3.5035550609574716e+02 -3.5037121861425220e+02 -3.5032319338876351e+02 -3.5033906533662480e+02 -3.5020016151797381e+02 -3.5027477230474437e+02
 -3.4891700953487697e+02 -3.4900660079461841e+02 -3.4755676304155486e+02 -3.4761207720488363e+02 -3.4618777366471852e+02 -3.4621708869186466e+02 -3.5039459903196263e+02 -3.5038638172278951e+02 -3.5037121888189375e+02 -3.5033906666921547e+02
 -3.5027496744868824e+02 -3.4901257957904227e+02 -3.4761956338996237e+02 -3.4622432830139337e+02 -3.3509634313420105e+02 -3.3509863168358487e+02 -3.3509927873122643e+02 -3.5037888985310792e+02 -3.5037067207184151e+02 -3.5039459903196263e+02
 -3.5038638158585093e+02 -3.5035550609531634e+02 -3.5037121861424487e+02 -3.5032319259723113e+02 -3.5033906531080538e+02 -3.5019981064836253e+02 -3.5027474935928950e+02 -3.4891561654889733e+02 -3.4900538287908978e+02 -3.4755438178499469e+02
 -3.4760975904062713e+02 -3.4618451042142703e+02 -3.4621380713984587e+02 -3.5039459903196263e+02 -3.5038638172278939e+02 -3.5037121888188659e+02 -3.5033906664408113e+02 -3.5027494506453928e+02 -3.4901136156638995e+02 -3.4761723644291732e+02
 -3.4622102821949437e+02 -3.3509117811846630e+02 -3.3509345388380933e+02 -3.3509410355623697e+02 -3.5039459903196263e+02 -3.5038638157092606e+02 -3.5037121858505071e+02 -3.5033906509047580e+02 -3.5027466675604393e+02 -3.4900336634881404e+02
 -3.4760728802028495e+02 -3.4621155086956844e+02 -3.5037717774777701e+02 -3.5036895991376019e+02 -3.5035379341023912e+02 -3.5032137374157537e+02 -3.5016055638731007e+02 -3.4888535252473588e+02 -3.4753428225905725e+02 -3.4617237653586955e+02
 -3.3509680963018917e+02 -3.3509328120739434e+02 -3.5039459903196263e+02 -3.5038638157092601e+02 -3.5037121858504321e+02 -3.5033906506414786e+02 -3.5027464340795007e+02 -3.4900215110747405e+02 -3.4760498447342684e+02 -3.4620829788523781e+02
 -3.5037717774777701e+02 -3.5036895991375997e+02 -3.5035379340930359e+02 -3.5032137214698662e+02 -3.5015990379893458e+02 -3.4888378482131151e+02 -3.4753182682570468e+02 -3.4616911825192136e+02 -3.3509167280201854e+02 -3.3508817395821444e+02
 -3.2397510678247534e+02 -3.2397525640411374e+02 -3.2397520821392590e+02 -3.1283994194229456e+02 -3.1283994173567885e+02 -3.1283990438895160e+02 -3.2397132309799878e+02 -3.2397147207709520e+02 -3.2397142861447662e+02 -3.1283766110167096e+02
 -3.1283766135088541e+02 -3.1283762600123987e+02 -3.2397478477661502e+02 -3.2397440869856086e+02 -3.1283982583272029e+02 -3.1283977603752481e+02 -3.2397101727459130e+02 -3.2397064896312207e+02 -3.1283755057720441e+02 -3.1283750247228710e+02
 -3.5037888985310792e+02 -3.5037067206437428e+02 -3.5039459903196263e+02 -3.5038638154788339e+02 -3.5035550607811388e+02 -3.5037121853999417e+02 -3.5032318777418476e+02 -3.5033906479393431e+02 -3.5019770210882035e+02 -3.5027456674151972e+02
 -3.4890830555438748e+02 -3.4899785991224422e+02 -3.4754287150276934e+02 -3.4759718275656110e+02 -3.4616975051316467e+02 -3.4619768486009804e+02 -3.5039459903196263e+02 -3.5038638168482152e+02 -3.5037121880763482e+02 -3.5033906612767254e+02
 -3.5027476256413007e+02 -3.4900363760666158e+02 -3.4760429185900341e+02 -3.4620442753519563e+02 -3.3507947649277043e+02 -3.3508155580176344e+02 -3.3508214716202099e+02 -3.5037717774777707e+02 -3.5036895927466918e+02 -3.5037717774777707e+02
 -3.5036895942236208e+02 -3.5035379211776876e+02 -3.5035379241129061e+02 -3.5032129618256585e+02 -3.5032130532055209e+02 -3.5013102625974437e+02 -3.5013425895931658e+02 -3.4883256962821764e+02 -3.4883761794020694e+02 -3.4746998186275772e+02
 -3.4747508896670735e+02 -3.4610273906198705e+02 -3.4610724436201042e+02 -3.5037717774777707e+02 -3.5036895942236629e+02 -3.5035379241203384e+02 -3.5032130656075833e+02 -3.5013476467544496e+02 -3.4883861898044785e+02 -3.4747637773798078e+02
 -3.4610865878668284e+02 -3.3506018831880709e+02 -3.3506074982961570e+02 -3.3506082116681137e+02 -3.5039459903196263e+02 -3.5038638153295852e+02 -3.5037121851079303e+02 -3.5033906454797528e+02 -3.5027446161779346e+02 -3.4899478997337224e+02
 -3.4759272718408300e+02 -3.4619262206506812e+02 -3.5037717774777701e+02 -3.5036895991375451e+02 -3.5035379340473776e+02 -3.5032136439455707e+02 -3.5015673235419462e+02 -3.4887644975341527e+02 -3.4752086106548694e+02 -3.4615523018861427e+02
 -3.3507998557292001e+02 -3.3507680345761918e+02 -3.5037717774777707e+02 -3.5036895942236140e+02 -3.5035379241049878e+02 -3.5032130397433832e+02 -3.5013370988035155e+02 -3.4883650591182021e+02 -3.4747353125435990e+02 -3.4610536190740117e+02
 -3.5037717774777707e+02 -3.5036895925857129e+02 -3.5035379208340635e+02 -3.5032129115323744e+02 -3.5012903191831680e+02 -3.4882944828667769e+02 -3.4746638031080300e+02 -3.4609897709998984e+02 -3.3505984071065672e+02 -3.3505878854651922e+02
 -3.2396530134461244e+02 -3.2396543322449270e+02 -3.2396539498387352e+02 -3.1283478159833015e+02 -3.1283478144431081e+02 -3.1283474991640099e+02 -3.2395971593900640e+02 -3.2395975084555533e+02 -3.2395968553260042e+02 -3.1283294028623698e+02
 -3.1283293477261611e+02 -3.1283290483681679e+02 -3.2396503561807106e+02 -3.2396471102206760e+02 -3.1283468387930350e+02 -3.1283464187235649e+02 -3.2395946345821449e+02 -3.2395929982697919e+02 -3.1283285494249145e+02 -3.1283282663224338e+02
 -3.0169101313844595e+02 -3.0169100970446993e+02 -3.0169099794550732e+02 -2.9052776215640318e+02 -2.9052776117731361e+02 -2.9052775856672702e+02 -3.0168974255506942e+02 -3.0168973932267181e+02 -3.0168972816370137e+02 -2.9052709693839995e+02
 -2.9052709600882326e+02 -2.9052709352769688e+02 -3.0169098185910451e+02 -3.0169097363155549e+02 -2.9052775562826554e+02 -2.9052775430301159e+02 -3.0168971282765330e+02 -3.0168970495993358e+02 -2.9052709073222758e+02 -2.9052708947038764e+02
 -2.6815735186151767e+02 -2.6815735176563976e+02 -2.6815735152703468e+02 -2.6815718298462696e+02 -2.6815718289301276e+02 -2.6815718266498283e+02 -2.6815735127858403e+02 -2.6815735117255491e+02 -2.6815718242746539e+02 -2.6815718232602524e+02
 -3.0168837167439864e+02 -3.0168836870630395e+02 -3.0168835866240840e+02 -2.9052646016148157e+02 -2.9052645930693916e+02 -2.9052645704087280e+02 -3.0168767290165431e+02 -3.0168766982872495e+02 -3.0168766060376481e+02 -2.9052617933117529e+02
 -2.9052617851424998e+02 -2.9052617639721177e+02 -3.0168834504341078e+02 -3.0168833809960989e+02 -2.9052645450515081e+02 -2.9052645336487154e+02 -3.0168764903794028e+02 -3.0168764343576112e+02 -2.9052617408099405e+02 -2.9052617305025808e+02
 -2.6815703009999675e+02 -2.6815703001418814e+02 -2.6815702980081352e+02 -2.6815696711569319e+02 -2.6815696703243816e+02 -2.6815696682526283e+02 -2.6815702957841165e+02 -2.6815702948264482e+02 -2.6815696660610541e+02 -2.6815696650375378e+02
 -2.4572772901556908e+02 -2.4572772900672973e+02 -2.4572772898514123e+02 -2.4572779499973731e+02 -2.4572779499107000e+02 -2.4572779496985657e+02 -2.4572772896315229e+02 -2.4572772895387649e+02 -2.4572779494815421e+02 -2.4572779493892114e+02
 -2.2323881715519622e+02 -2.2323881715428305e+02 -2.2323881715202879e+02 -2.2323911740688411e+02 -2.2323911740580780e+02 -2.2323911740310896e+02 -2.2323881714965015e+02 -2.2323881714857794e+02 -2.2323911740018278e+02 -2.2323911739880333e+02
 -2.4572783019226955e+02 -2.4572783018349097e+02 -2.4572783016171581e+02 -2.4572784070708568e+02 -2.4572784069744171e+02 -2.4572784067229557e+02 -2.4572783013863119e+02 -2.4572783012781602e+02 -2.4572784064104403e+02 -2.4572784061781439e+02
 -2.2323931622736691e+02 -2.2323931622573150e+02 -2.2323931622136314e+02 -2.2323938568465914e+02 -2.2323938568191355e+02 -2.2323938567354602e+02 -2.2323931621590751e+02 -2.2323931621243855e+02 -2.2323938565915472e+02 -2.2323938564237480e+02
 -2.0069072384322769e+02 -2.0069072384313816e+02 -2.0069072384287705e+02 -2.0069143246331092e+02 -2.0069143246303005e+02 -2.0069143246225593e+02 -2.0069072384249694e+02 -2.0069072384225112e+02 -2.0069143246125941e+02 -2.0069143246067750e+02
 -1.7808371982842013e+02 -1.7808371982974867e+02 -1.7808371983291016e+02 -1.7808527205230752e+02 -1.7808527205341539e+02 -1.7808527205599285e+02 -1.7808371983595012e+02 -1.7808371983711692e+02 -1.7808527205834545e+02 -1.7808527205914669e+02
 -2.0069190666047456e+02 -2.0069190665960039e+02 -2.0069190665707285e+02 -2.0069207330939133e+02 -2.0069207330738942e+02 -2.0069207330081326e+02 -2.0069190665345886e+02 -2.0069190665073040e+02 -2.0069207328811848e+02 -2.0069207327141822e+02
 -1.7808631414933632e+02 -1.7808631414982204e+02 -1.7808631415057582e+02 -1.7808668103241453e+02 -1.7808668103175970e+02 -1.7808668102842904e+02 -1.7808631415023819e+02 -1.7808631414884357e+02 -1.7808668101888486e+02 -1.7808668100282867e+02
 -1.5540442856623736e+02 -1.5540518012970298e+02 -1.5540442858332597e+02 -1.5540518014679560e+02 -1.5540442862453691e+02 -1.5540518018802157e+02 -1.5540733035937623e+02 -1.5540733037647411e+02 -1.5540733041771335e+02 -1.5540442866563731e+02
 -1.5540518022913557e+02 -1.5540442868256818e+02 -1.5540518024607368e+02 -1.5540733045884068e+02 -1.5540733047578456e+02 -1.3266623083703053e+02 -1.3266779677919027e+02 -1.3266623103064006e+02 -1.3266779697289599e+02 -1.3266623149806810e+02
 -1.3266779744056149e+02 -1.3267229506051316e+02 -1.3267229525440430e+02 -1.3267229572251819e+02 -1.3266623196546624e+02 -1.3266779790819552e+02 -1.3266623215899551e+02 -1.3266779810182402e+02 -1.3267229619060097e+02 -1.3267229638441572e+02
 -1.5541057642998402e+02 -1.5541057644705558e+02 -1.5541057648823141e+02 -1.5541444980566757e+02 -1.5541444982262331e+02 -1.5541444986351897e+02 -1.5541057652929561e+02 -1.5541057654621366e+02 -1.5541444990430261e+02 -1.5541444992110468e+02
 -1.3267913772790743e+02 -1.3267913792173590e+02 -1.3267913838969886e+02 -1.3268738714064284e+02 -1.3268738733352259e+02 -1.3268738779919457e+02 -1.3267913885763124e+02 -1.3267913905138411e+02 -1.3268738826483565e+02 -1.3268738845763971e+02
 -1.0985608603213369e+02 -1.0985926453055258e+02 -1.0985608821591237e+02 -1.0985926671585075e+02 -1.0985609349001854e+02 -1.0985927199363508e+02 -1.0986846266998492e+02 -1.0986846485872540e+02 -1.0986847014482912e+02 -1.0985609876692320e+02
 -1.0985927727422262e+02 -1.0985610095344707e+02 -1.0985927946227515e+02 -1.0986847543374773e+02 -1.0986847762525477e+02 -8.6961029957718281e+01 -8.6967170387105071e+01 -8.6961054555185228e+01 -8.6967195006159997e+01 -8.6961114007762532e+01
 -8.6967254511049831e+01 -8.6985180079698623e+01 -8.6985204751594509e+01 -8.6985264384356725e+01 -8.6961173559257361e+01 -8.6967314115116494e+01 -8.6961198255605964e+01 -8.6967338833315836e+01 -8.6985324116716455e+01 -8.6985348888177199e+01
 -1.0988265249914581e+02 -1.0988265468974701e+02 -1.0988265998035051e+02 -1.0990009147618035e+02 -1.0990009365963914e+02 -1.0990009893300225e+02 -1.0988266527377993e+02 -1.0988266746715883e+02 -1.0990010420919562e+02 -1.0990010639543672e+02
 -8.7013687178626967e+01 -8.7013711901308966e+01 -8.7013771656952699e+01 -8.7049995261412178e+01 -8.7050019953655791e+01 -8.7050079636035662e+01 -8.7013831512576132e+01 -8.7013856335205219e+01 -8.7050139418699828e+01 -8.7050164211195465e+01
 -6.3956649869353463e+01 -6.3967397921217341e+01 -6.3956926144968733e+01 -6.3967674485492701e+01 -6.3957595457329596e+01 -6.3968344502371004e+01 -6.3999704903679721e+01 -6.3999982193837852e+01 -6.4000653974109198e+01 -6.3958268131548323e+01
 -6.3969017891456701e+01 -6.3958547770368625e+01 -6.3969297829227060e+01 -6.4001329141681339e+01 -6.4001609820379883e+01 -5.2398118845594460e+01 -5.2401562245426689e+01 -5.2399461776933485e+01 -5.2411018905685694e+01 -5.2412363486035090e+01
 -5.2402896251032331e+01 -5.2402734456340390e+01 -5.2415640294439413e+01 -5.2406146861771859e+01 -4.0786443785467398e+01 -4.0791949236860312e+01 -4.0789926782531488e+01 -4.0795433847746487e+01 -4.0800490272483948e+01 -4.0806003374249549e+01
 -4.0805541418591019e+01 -4.0809030621831162e+01 -4.0819616000693578e+01 -5.2427610462913407e+01 -5.2450670704130005e+01 -5.2452019223538045e+01 -5.2428947424324356e+01 -5.2455305697661508e+01 -5.2432205354647678e+01 -4.0818648881760446e+01
 -4.0824169223781844e+01 -4.0845066030579659e+01 -4.0850595924938432e+01 -4.0837800280245617e+01 -4.0864250705091308e+01 -5.2406051987398300e+01 -5.2418962150064665e+01 -5.2409441540624258e+01 -5.2407439806708673e+01 -5.2420351811483087e+01
 -5.2410819648631971e+01 -4.0819584878700027e+01 -4.0823079548612988e+01 -4.0833682440293273e+01 -4.0825542278198704e+01 -4.0829039411379526e+01 -4.0839649969486750e+01 -5.2458637431351079e+01 -5.2435507599364797e+01 -5.2460031243008686e+01
 -5.2436888907240395e+01 -4.0851886410646074e+01 -4.0878361460379317e+01 -4.0857862426134680e+01 -4.0884347924501448e+01 -6.4053313337381866e+01 -6.4053591515557486e+01 -6.4054265449120251e+01 -6.4126269412064786e+01 -6.4126547933951969e+01
 -6.4127222707984117e+01 -6.4054942783110846e+01 -6.4055224362945168e+01 -6.4127900897154589e+01 -6.4128182835413128e+01 -5.2481463178283953e+01 -5.2519378285310090e+01 -5.2520732171329193e+01 -5.2482804803374265e+01 -5.2524031718093411e+01
 -5.2486074113451480e+01 -4.0880741167643968e+01 -4.0886281214788312e+01 -4.0926788627719212e+01 -4.0932341882467647e+01 -4.0899960994110749e+01 -4.0946054138302955e+01 -5.2565535924945380e+01 -5.2619057560079291e+01 -5.2620416683978803e+01
 -5.2566883267974603e+01 -5.2623729051694731e+01 -5.2570166517414329e+01 -4.0984590353887590e+01 -4.0990158208020887e+01 -4.1055463833058788e+01 -4.1061048221483169e+01 -4.1003906456368284e+01 -4.1074837489580119e+01 -5.2527376685695451e+01
 -5.2489387904090783e+01 -5.2528776025095453e+01 -5.2490774041384419e+01 -4.0914097414728658e+01 -4.0960223847251278e+01 -4.0920094696344727e+01 -4.0966235147925687e+01 -5.2627087082168117e+01 -5.2573494434333796e+01 -5.2628491901411543e+01
 -5.2574886476456392e+01 -4.1018113177415970e+01 -4.1089086735687530e+01 -4.1024140097067388e+01 -4.1095131695559175e+01 -2.9088007742944324e+01 -2.9091059431420160e+01 -2.9109359493705192e+01 -2.9112419551671792e+01 -2.9100622953101521e+01
 -2.9122006476987504e+01 -2.9163776247230484e+01 -2.9166867674154922e+01 -2.9176527457306264e+01 -1.7178038924568902e+01 -1.7177701531620599e+01 -1.7196988300797791e+01 -1.7178517150732048e+01 -1.7252640955666042e+01 -1.7196667011774935e+01
 -1.7253416756805045e+01 -1.7197464170633005e+01 -1.7252938531346903e+01 -1.7180374526316957e+01 -1.7199315427023915e+01 -1.7183141583431766e+01 -1.7258086376495328e+01 -1.7202096279034940e+01 -1.7255267810625959e+01 -1.7343849468091761e+01
 -1.7462662448256125e+01 -1.7343581300169724e+01 -1.7463618100890837e+01 -1.7344398504233165e+01 -1.7462905966495580e+01 -1.7346270250995971e+01 -1.7468653394196238e+01 -1.7349195151614953e+01 -1.7465544494234063e+01 -2.9117637011301522e+01
 -2.9139051364122544e+01 -2.9143336854383584e+01 -2.9164785333709425e+01 -2.9193656934455873e+01 -2.9219478960992010e+01 -1.7187879071372652e+01 -1.7206839049873579e+01 -1.7193931677956503e+01 -1.7268974777854002e+01 -1.7212911162861754e+01
 -1.7262853865108010e+01 -1.7202284546526133e+01 -1.7221271638492777e+01 -1.7212263112513295e+01 -1.7287412640438518e+01 -1.7231271103395660e+01 -1.7277363307199789e+01 -1.7353997506500896e+01 -1.7479885907750234e+01 -1.7360224669656432e+01
 -1.7473497792203595e+01 -1.7368643203900525e+01 -1.7498629259759273e+01 -1.7378796344609835e+01 -1.7488326216691906e+01 -2.9222651260143891e+01 -2.9225787532346491e+01 -2.9235540664405299e+01 -2.9248473489144217e+01 -2.9251630985242244e+01
 -2.9261427375744098e+01 -1.7596779830770974e+01 -1.7722619267448593e+01 -1.7596556407609722e+01 -1.7724073445197142e+01 -1.7597766059210365e+01 -1.7722799330768794e+01 -1.7599766885697321e+01 -1.7729786230259201e+01 -1.7603142606029728e+01
 -1.7726129903979061e+01 -1.7814112798092722e+01 -1.7847937877852132e+01 -1.7813976744765903e+01 -1.7849628385886753e+01 -1.7815606023654485e+01 -1.7848046666564660e+01 -1.7817693327433371e+01 -1.7855673546922493e+01 -1.7821564842213007e+01
 -1.7851714710427906e+01 -2.9252767970792771e+01 -2.9278685642520969e+01 -2.9278698510720048e+01 -2.9304657833895231e+01 -1.7608015107098019e+01 -1.7741500136970458e+01 -1.7614622710221404e+01 -1.7734663878834596e+01 -1.7623056162766378e+01
 -1.7760613038392982e+01 -1.7633560839328236e+01 -1.7749900377480579e+01 -1.7826436239685638e+01 -1.7867617319706092e+01 -1.7833449062737287e+01 -1.7860531054707494e+01 -1.7841814394827200e+01 -1.7886899718127943e+01 -1.7852688484845906e+01
 -1.7875958224646869e+01 -1.0983630662725204e+01 -1.1011997518870819e+01 -1.0985343918616861e+01 -1.1013986063276512e+01 -1.0981036844830058e+01 -1.1009182797503930e+01 -1.1105342344934026e+01 -1.1103058739443991e+01 -1.1099933391673160e+01
 -4.5738418399992931e+00 -4.5620964441986516e+00 -4.5926435665556422e+00 -4.5758206315347056e+00 -4.5505636776075411e+00 -4.5621683342482307e+00 -4.6823054692776491e+00 -4.6620830643920090e+00 -4.6459702022738067e+00 -1.0979470998021775e+01
 -1.1007518368272549e+01 -1.0979551936219929e+01 -1.1007571824710768e+01 -1.1098122466620893e+01 -1.1098150693884838e+01 -4.5438880121003251e+00 -4.5549094988417513e+00 -4.5409529433974134e+00 -4.5518446617808435e+00 -4.6377723879489237e+00
 -4.6344451115714129e+00 -1.1266807334195914e+01 -1.1269272064936374e+01 -1.1263561180289329e+01 -1.1514736433641811e+01 -1.1512443835758488e+01 -1.1509567561739235e+01 -4.8848287255355771e+00 -4.8616259103893995e+00 -4.8437152054665011e+00
 -5.2750757428510724e+00 -5.2512520297380574e+00 -5.2338338767605377e+00 -1.1261760257411058e+01 -1.1261876960060455e+01 -1.1508129440114608e+01 -1.1508547530034098e+01 -4.8349408386456147e+00 -4.8315329710081638e+00 -5.2256697313988605e+00
 -5.2227053381011181e+00 -2.9616100081515215e+00 -2.9388888633714036e+00 -2.9635131022665049e+00 -2.9189642491873551e+00 -1.3611801110738302e+00 -1.3248614342007377e+00 -1.3417165201186021e+00 -1.2387025734500225e+00 1.4591211052669298e-01
 1.8618553909134747e-01 1.7793994037797509e-01 3.6305668437975580e-01 4.2282499655564243e-01 4.2293450971658963e-01 4.2291568744150759e-01 4.3837627196063023e-01 -2.9248679780349787e+00 -2.9008014391409294e+00 -1.3107248216485130e+00
 -1.2198114397483151e+00 1.9474901005640913e-01 3.6498527524810148e-01 4.2295407171637345e-01 4.3838316552958290e-01 -3.0307500116468487e+00 -2.9779763146154195e+00 -1.3815065021638924e+00 -1.2639543817160324e+00 1.6294696059895450e-01