DF-ISE text

Info {
  version = 1.0
  type    = dataset
  dimension   = 3
  nb_vertices = 5293
  nb_edges    = 23303
  nb_faces    = 30690
  nb_elements = 12980
  nb_regions  = 3
  datasets    = [ "ElectrostaticPotential" "ContactExternalVoltage" "ContactCurrentFlux" "ContactCharge" "eQuasiFermiPotential" "hQuasiFermiPotential" "QuasiFermiPotential" "LatticeTemperature" ]
  functions   = [ ElectrostaticPotential ContactExternalVoltage ContactCurrentFlux ContactCharge eQuasiFermiPotential hQuasiFermiPotential QuasiFermiPotential LatticeTemperature ]
}

Data {

  Dataset ("ElectrostaticPotential") {
    function  = ElectrostaticPotential
    type      = scalar
    dimension = 1
    location  = vertex
    validity  = [ "substrate" ]
    Values (5293) {
 -1.7537888985310795e+02 -1.7537067152405714e+02 -1.7537888985310795e+02 -1.7537888985310795e+02 -1.7537067207185208e+02 -1.7537067166100175e+02 -1.7539459903196266e+02 -1.7538638155161519e+02 -1.7535550509928677e+02 -1.7535550617116834e+02
 -1.7535550536719651e+02 -1.7537121855058118e+02 -1.7532332650818353e+02 -1.7532333204509993e+02 -1.7532332780988691e+02 -1.7533907692184789e+02 -1.7526132202361941e+02 -1.7526182210274260e+02 -1.7526141036983731e+02 -1.7528533357765315e+02
 -1.7465679647985746e+02 -1.7466943647156094e+02 -1.7465880280006328e+02 -1.7472574409241028e+02 -1.7398571280443588e+02 -1.7400426570446984e+02 -1.7398828621989426e+02 -1.7403884124379272e+02 -1.7331187059029801e+02 -1.7333314706610562e+02
 -1.7331444253546499e+02 -1.7335102389583471e+02 -1.7537888985310795e+02 -1.7537067166100533e+02 -1.7539459903196266e+02 -1.7538638168855329e+02 -1.7535550536722951e+02 -1.7537121881817680e+02 -1.7532332784542393e+02 -1.7533907809578866e+02
 -1.7526142610455994e+02 -1.7528539584042434e+02 -1.7465928517055781e+02 -1.7472958694120717e+02 -1.7398910245299973e+02 -1.7404374874741112e+02 -1.7331546998698846e+02 -1.7335586283794314e+02 -1.6787663005632950e+02 -1.6788382905417285e+02
 -1.6787702110811477e+02 -1.6788523745823261e+02 -1.6787722726793197e+02 -1.6788588446709926e+02 -1.7537888985310795e+02 -1.7537067207185567e+02 -1.7539459903196266e+02 -1.7538638158585124e+02 -1.7535550617126128e+02 -1.7537121861749304e+02
 -1.7532333219078953e+02 -1.7533907724156313e+02 -1.7526188696770384e+02 -1.7528537240989144e+02 -1.7467147432703160e+02 -1.7472867355084347e+02 -1.7400802469685996e+02 -1.7404374285073447e+02 -1.7333829934448596e+02 -1.7335729727042096e+02
 -1.7539459903196266e+02 -1.7538638172278971e+02 -1.7537121888509085e+02 -1.7533907841807462e+02 -1.7528543695072665e+02 -1.7473272123269257e+02 -1.7404899680992816e+02 -1.7336256922554225e+02 -1.6788826432273208e+02 -1.6788982936446303e+02
 -1.6789056005075707e+02 -1.7537888985310795e+02 -1.7537067166100135e+02 -1.7539459903196266e+02 -1.7538638153669032e+02 -1.7535550536719046e+02 -1.7537121852141263e+02 -1.7532332780146484e+02 -1.7533907679155317e+02 -1.7526140662695818e+02
 -1.7528532495119421e+02 -1.7465868772291182e+02 -1.7472520884600823e+02 -1.7398807817560126e+02 -1.7403805588035900e+02 -1.7331416321704685e+02 -1.7335012781914668e+02 -1.7537888985310795e+02 -1.7537067150913148e+02 -1.7537717774777707e+02
 -1.7536895992183261e+02 -1.7535550507007943e+02 -1.7535379356581851e+02 -1.7532332635758311e+02 -1.7532161217999769e+02 -1.7526130863370605e+02 -1.7525863744182510e+02 -1.7465648253621904e+02 -1.7466384769145108e+02 -1.7398523828741475e+02
 -1.7400033969391455e+02 -1.7331131005000432e+02 -1.7333055854253558e+02 -1.6787686973308740e+02 -1.6788495902314023e+02 -1.6787639731358706e+02 -1.6788335407451129e+02 -1.7539459903196266e+02 -1.7538638157092632e+02 -1.7537121858832404e+02
 -1.7533907711071365e+02 -1.7528536329212181e+02 -1.7472809508998679e+02 -1.7404287946220657e+02 -1.7335629729922280e+02 -1.7537717774777707e+02 -1.7536895991378827e+02 -1.7535379355018731e+02 -1.7532161227842792e+02 -1.7525870491727235e+02
 -1.7466575721708818e+02 -1.7400390731061776e+02 -1.7333549043213566e+02 -1.6788950609120906e+02 -1.6788771815688395e+02 -1.6240900991351427e+02 -1.6241115434021330e+02 -1.6240905334960243e+02 -1.6241126784662393e+02 -1.6240907173068729e+02
 -1.6241132432471281e+02 -1.5692190022244355e+02 -1.5692259594553187e+02 -1.5692190361095786e+02 -1.5692260417081451e+02 -1.5692190220725377e+02 -1.5692260536474200e+02 -1.6241342119020879e+02 -1.6241355131511324e+02 -1.6241361666125093e+02
 -1.5692363960008538e+02 -1.5692364927936475e+02 -1.5692365085783391e+02 -1.6240900400984731e+02 -1.6241119727013196e+02 -1.6240893850222670e+02 -1.6241104949895407e+02 -1.5692188970806527e+02 -1.5692258682910230e+02 -1.5692188043211223e+02
 -1.5692257110683727e+02 -1.6241346887981456e+02 -1.6241329893849098e+02 -1.5692362922618526e+02 -1.5692361087951141e+02 -1.7537888985310795e+02 -1.7537067207185567e+02 -1.7539459903196266e+02 -1.7538638158585130e+02 -1.7535550617127760e+02
 -1.7537121861749495e+02 -1.7532333222075727e+02 -1.7533907724747587e+02 -1.7526190033323064e+02 -1.7528537767351543e+02 -1.7467189585517136e+02 -1.7472912087882918e+02 -1.7400883132415035e+02 -1.7404460005130210e+02 -1.7333944896294759e+02
 -1.7335851385350290e+02 -1.7539459903196266e+02 -1.7538638172278976e+02 -1.7537121888509279e+02 -1.7533907842413734e+02 -1.7528544234980581e+02 -1.7473318188307653e+02 -1.7404987892556204e+02 -1.7336381977368771e+02 -1.6789013416943450e+02
 -1.6789171563723451e+02 -1.6789245523423023e+02 -1.7537888985310795e+02 -1.7537067207185567e+02 -1.7539459903196266e+02 -1.7538638158585130e+02 -1.7535550617128047e+02 -1.7537121861749520e+02 -1.7532333222607542e+02 -1.7533907724847091e+02
 -1.7526190270517699e+02 -1.7528537856009464e+02 -1.7467197071943366e+02 -1.7472919626860545e+02 -1.7400897591068949e+02 -1.7404474684253310e+02 -1.7333965789538036e+02 -1.7335872630179568e+02 -1.7539459903196266e+02 -1.7538638172278976e+02
 -1.7537121888509307e+02 -1.7533907842513790e+02 -1.7528544324161399e+02 -1.7473325802255795e+02 -1.7405002717941412e+02 -1.7336403427898159e+02 -1.6789058615842751e+02 -1.6789216893651823e+02 -1.6789290906617038e+02 -1.7539459903196266e+02
 -1.7538638157092637e+02 -1.7537121858832595e+02 -1.7533907711656380e+02 -1.7528536849957251e+02 -1.7472853735972805e+02 -1.7404372699540801e+02 -1.7335750034094286e+02 -1.7537717774777707e+02 -1.7536895991378825e+02 -1.7535379355020837e+02
 -1.7532161231454481e+02 -1.7525871985488894e+02 -1.7466617075236735e+02 -1.7400469777869671e+02 -1.7333661742241858e+02 -1.6789138186416631e+02 -1.6788957251079319e+02 -1.7539459903196266e+02 -1.7538638157092637e+02 -1.7537121858832620e+02
 -1.7533907711755239e+02 -1.7528536938032119e+02 -1.7472861220387966e+02 -1.7404387272684787e+02 -1.7335771127881466e+02 -1.7537717774777707e+02 -1.7536895991378825e+02 -1.7535379355021215e+02 -1.7532161232102277e+02 -1.7525872253400260e+02
 -1.7466624497328445e+02 -1.7400484085518502e+02 -1.7333682410451399e+02 -1.6789183339385460e+02 -1.6789002195615461e+02 -1.6241473229244980e+02 -1.6241486467907140e+02 -1.6241493071626874e+02 -1.5692437333360436e+02 -1.5692438319968468e+02
 -1.5692438459780132e+02 -1.6241508817746833e+02 -1.6241522075596211e+02 -1.6241528671477690e+02 -1.5692458183847643e+02 -1.5692459170720022e+02 -1.5692459302388511e+02 -1.6241477836629019e+02 -1.6241460448371751e+02 -1.5692436201382372e+02
 -1.5692434300426743e+02 -1.6241513363274728e+02 -1.6241495921643056e+02 -1.5692457024530304e+02 -1.5692455111805975e+02 -1.5141851876360431e+02 -1.5141877060364831e+02 -1.5141851870804078e+02 -1.5141877085836708e+02 -1.5141851753760699e+02
 -1.5141876977433316e+02 -1.4589978084838091e+02 -1.4589987516360995e+02 -1.4589978074319063e+02 -1.4589987506719405e+02 -1.4589978040731179e+02 -1.4589987471612369e+02 -1.5141923728329215e+02 -1.5141923762173008e+02 -1.5141923643491612e+02
 -1.4590007553982741e+02 -1.4590007543789167e+02 -1.4590007505194728e+02 -1.5141851505884514e+02 -1.5141876664617462e+02 -1.5141851359329002e+02 -1.5141876462701575e+02 -1.4589977996239020e+02 -1.4589987421131292e+02 -1.4589977974364106e+02
 -1.4589987395229900e+02 -1.5141923282975338e+02 -1.5141923048342775e+02 -1.4590007448413286e+02 -1.4590007418993929e+02 -1.3481718196144914e+02 -1.3481720872487477e+02 -1.3481718194817702e+02 -1.3481720871123940e+02 -1.3481718191355390e+02
 -1.3481720867493402e+02 -1.3481727322372726e+02 -1.3481727320905918e+02 -1.3481727316966402e+02 -1.3481718187536174e+02 -1.3481720863400005e+02 -1.3481718185842672e+02 -1.3481720861559012e+02 -1.3481727312483196e+02 -1.3481727310455742e+02
 -1.5141960746130019e+02 -1.5141960779160635e+02 -1.5141960650850388e+02 -1.4590024977802869e+02 -1.4590024966854895e+02 -1.4590024925782561e+02 -1.5141971358702637e+02 -1.5141971390940245e+02 -1.5141971259469474e+02 -1.4590030236919034e+02
 -1.4590030225689051e+02 -1.4590030183813488e+02 -1.5141960270748640e+02 -1.5141960024769924e+02 -1.4590024865637574e+02 -1.4590024834549709e+02 -1.5141970874538569e+02 -1.5141970626036505e+02 -1.4590030122697391e+02 -1.4590030091156149e+02
 -1.3481734229044872e+02 -1.3481734227493342e+02 -1.3481734223327825e+02 -1.3481738554155635e+02 -1.3481738552573401e+02 -1.3481738548329247e+02 -1.3481734218589040e+02 -1.3481734216446779e+02 -1.3481738543505540e+02 -1.3481738541326243e+02
 -1.2367495642135827e+02 -1.2367497881031686e+02 -1.2367495641997192e+02 -1.2367497880888304e+02 -1.2367495641651330e+02 -1.2367497880529790e+02 -1.2367504013507390e+02 -1.2367504013354761e+02 -1.2367504012972360e+02 -1.2367495641286563e+02
 -1.2367497880150107e+02 -1.2367495641126766e+02 -1.2367497879983647e+02 -1.2367504012566576e+02 -1.2367504012388659e+02 -1.1247313878512327e+02 -1.1247318016963415e+02 -1.1247313878493306e+02 -1.1247318016943744e+02 -1.1247313878443715e+02
 -1.1247318016893136e+02 -1.1247329754030258e+02 -1.1247329754009793e+02 -1.1247329753957304e+02 -1.1247313878385386e+02 -1.1247318016833991e+02 -1.1247313878355203e+02 -1.1247318016803712e+02 -1.1247329753896271e+02 -1.1247329753865233e+02
 -1.2367512559136517e+02 -1.2367512558976259e+02 -1.2367512558574775e+02 -1.2367521705150573e+02 -1.2367521704986649e+02 -1.2367521704576140e+02 -1.2367512558148994e+02 -1.2367512557962532e+02 -1.2367521704141095e+02 -1.2367521703950742e+02
 -1.1247347189935087e+02 -1.1247347189913791e+02 -1.1247347189859289e+02 -1.1247367560852170e+02 -1.1247367560829640e+02 -1.1247367560772139e+02 -1.1247347189796245e+02 -1.1247347189764389e+02 -1.1247367560706074e+02 -1.1247367560672978e+02
 -1.0121157699183408e+02 -1.0121166450359689e+02 -1.0121157699181758e+02 -1.0121166450357737e+02 -1.0121157699174213e+02 -1.0121166450349989e+02 -1.0121191391153396e+02 -1.0121191391151301e+02 -1.0121191391143287e+02 -1.0121157699157807e+02
 -1.0121166450333622e+02 -1.0121157699144548e+02 -1.0121166450320608e+02 -1.0121191391126712e+02 -1.0121191391113649e+02 -8.9889901959851471e+01 -8.9890088108411547e+01 -8.9889901960551825e+01 -8.9890088109109428e+01 -8.9889901962205812e+01
 -8.9890088110762221e+01 -8.9890619509675275e+01 -8.9890619510372289e+01 -8.9890619512023676e+01 -8.9889901963766704e+01 -8.9890088112324179e+01 -8.9889901964342783e+01 -8.9890088112902717e+01 -8.9890619513584824e+01 -8.9890619514163362e+01
 -1.0121228772664061e+02 -1.0121228772661671e+02 -1.0121228772652960e+02 -1.0121272953671723e+02 -1.0121272953668277e+02 -1.0121272953656992e+02 -1.0121228772635720e+02 -1.0121228772622408e+02 -1.0121272953637168e+02 -1.0121272953622804e+02
 -8.9891418429740412e+01 -8.9891418430434129e+01 -8.9891418432077714e+01 -8.9892366499339772e+01 -8.9892366500020103e+01 -8.9892366501631216e+01 -8.9891418433631401e+01 -8.9891418434207154e+01 -8.9892366503152346e+01 -8.9892366503714854e+01
 -1.7537888985310795e+02 -1.7537067207185567e+02 -1.7539459903196266e+02 -1.7538638158585130e+02 -1.7535550617127666e+02 -1.7537121861749486e+02 -1.7532333221906316e+02 -1.7533907724716516e+02 -1.7526189957762193e+02 -1.7528537739669605e+02
 -1.7467187199832162e+02 -1.7472909733637579e+02 -1.7400878490745552e+02 -1.7404455383384587e+02 -1.7333938105594726e+02 -1.7335844606051410e+02 -1.7539459903196266e+02 -1.7538638172278976e+02 -1.7537121888509273e+02 -1.7533907842382831e+02
 -1.7528544207438267e+02 -1.7473315836440287e+02 -1.7404983273904341e+02 -1.7336375201224635e+02 -1.6788994896792201e+02 -1.6789153044623743e+02 -1.6789227004629015e+02 -1.7537888985310795e+02 -1.7537067207185567e+02 -1.7539459903196266e+02
 -1.7538638158585124e+02 -1.7535550617125787e+02 -1.7537121861749273e+02 -1.7532333218474915e+02 -1.7533907724045693e+02 -1.7526188427472039e+02 -1.7528537142478527e+02 -1.7467138944879531e+02 -1.7472858982756912e+02 -1.7400786181905673e+02
 -1.7404358072295545e+02 -1.7333806550209297e+02 -1.7335706386987590e+02 -1.7539459903196266e+02 -1.7538638172278971e+02 -1.7537121888509054e+02 -1.7533907841697450e+02 -1.7528543597066988e+02 -1.7473263760096643e+02 -1.7404883480333476e+02
 -1.7336233595045553e+02 -1.6788778504556629e+02 -1.6788935012859920e+02 -1.6789008082894813e+02 -1.7539459903196266e+02 -1.7538638157092637e+02 -1.7537121858832583e+02 -1.7533907711625272e+02 -1.7528536822244172e+02 -1.7472851380680788e+02
 -1.7404368076146670e+02 -1.7335743252782521e+02 -1.7537717774777707e+02 -1.7536895991378825e+02 -1.7535379355020714e+02 -1.7532161231245615e+02 -1.7525871899106238e+02 -1.7466614681290983e+02 -1.7400465129815080e+02 -1.7333654946613410e+02
 -1.6789119666361734e+02 -1.6788938729425780e+02 -1.7539459903196266e+02 -1.7538638157092629e+02 -1.7537121858832370e+02 -1.7533907710960605e+02 -1.7528536230588742e+02 -1.7472801132771281e+02 -1.7404271727301131e+02 -1.7335606382389506e+02
 -1.7537717774777707e+02 -1.7536895991378822e+02 -1.7535379355018279e+02 -1.7532161227097839e+02 -1.7525870183756692e+02 -1.7466567203513097e+02 -1.7400374419431782e+02 -1.7333525640418827e+02 -1.6788902682424526e+02 -1.6788723882992107e+02
 -1.6241453858646503e+02 -1.6241467097379294e+02 -1.6241473701044663e+02 -1.5692422009255961e+02 -1.5692422995856268e+02 -1.5692423135624998e+02 -1.6241298480319699e+02 -1.6241311493114020e+02 -1.6241318027635631e+02 -1.5692332092449368e+02
 -1.5692333060363097e+02 -1.5692333218089769e+02 -1.6241458465770430e+02 -1.6241441077294425e+02 -1.5692420877155567e+02 -1.5692418976159220e+02 -1.6241303248599826e+02 -1.6241286253711729e+02 -1.5692331054702166e+02 -1.5692329219900455e+02
 -1.7537888985310795e+02 -1.7537067206438886e+02 -1.7539459903196266e+02 -1.7538638154788370e+02 -1.7535550615655299e+02 -1.7537121854328691e+02 -1.7532333195099321e+02 -1.7533907688547563e+02 -1.7526180703309080e+02 -1.7528532805922632e+02
 -1.7466901344829839e+02 -1.7472532708602429e+02 -1.7400353012696704e+02 -1.7403810928993872e+02 -1.7333217080799182e+02 -1.7335004953689173e+02 -1.7539459903196266e+02 -1.7538638168482183e+02 -1.7537121881088279e+02 -1.7533907805945299e+02
 -1.7528539034922929e+02 -1.7472917036773174e+02 -1.7404301732819991e+02 -1.7335488899449481e+02 -1.6788276704613745e+02 -1.6788417559942175e+02 -1.6788482266482774e+02 -1.7537717774777707e+02 -1.7536895927470562e+02 -1.7537717774777707e+02
 -1.7536895942239758e+02 -1.7535379229922438e+02 -1.7535379258822357e+02 -1.7532160543199853e+02 -1.7532160686754924e+02 -1.7525800456109596e+02 -1.7525810599550570e+02 -1.7464988161688396e+02 -1.7465189624893387e+02 -1.7397977562671346e+02
 -1.7398235408486818e+02 -1.7330686615516484e+02 -1.7330944077017878e+02 -1.7537717774777707e+02 -1.7536895942240164e+02 -1.7535379258826492e+02 -1.7532160691162198e+02 -1.7525812409916898e+02 -1.7465238058730631e+02 -1.7398317181509628e+02
 -1.7331046927303143e+02 -1.6787459028005802e+02 -1.6787498154251571e+02 -1.6787518779961411e+02 -1.7539459903196266e+02 -1.7538638153295884e+02 -1.7537121851411831e+02 -1.7533907675517352e+02 -1.7528531942723049e+02 -1.7472479168608572e+02
 -1.7403732370386854e+02 -1.7334915320721683e+02 -1.7537717774777707e+02 -1.7536895991378367e+02 -1.7535379355004960e+02 -1.7532161207330051e+02 -1.7525862021864168e+02 -1.7466342316366834e+02 -1.7399960307322044e+02 -1.7332958158856894e+02
 -1.6788389708473628e+02 -1.6788229193316567e+02 -1.7537717774777707e+02 -1.7536895942239710e+02 -1.7535379258821567e+02 -1.7532160685709758e+02 -1.7525810168773646e+02 -1.7465178064719277e+02 -1.7398214557289501e+02 -1.7330916104459462e+02
 -1.7537717774777707e+02 -1.7536895925860844e+02 -1.7535379226771639e+02 -1.7532160526472458e+02 -1.7525798916727067e+02 -1.7464956617792922e+02 -1.7397930000267297e+02 -1.7330630481550025e+02 -1.6787483005654315e+02 -1.6787435736329294e+02
 -1.6241040042671750e+02 -1.6241051394358286e+02 -1.6241057042189308e+02 -1.5692211094009764e+02 -1.5692211916523274e+02 -1.5692212035637522e+02 -1.6240797757725468e+02 -1.6240802102776965e+02 -1.6240803940908941e+02 -1.5692131836824208e+02
 -1.5692132175609385e+02 -1.5692132034683780e+02 -1.6241044334447747e+02 -1.6241029555184653e+02 -1.5692210181492712e+02 -1.5692208608876498e+02 -1.6240797165319694e+02 -1.6240790611338389e+02 -1.5692130783591801e+02 -1.5692129855090167e+02
 -1.5141950687933593e+02 -1.5141950720955953e+02 -1.5141950592622746e+02 -1.4590020075952043e+02 -1.4590020064998060e+02 -1.4590020023910580e+02 -1.5141903721566814e+02 -1.5141903755384143e+02 -1.5141903636626597e+02 -1.4589998010551500e+02
 -1.4589998000335717e+02 -1.4589997961683110e+02 -1.5141950212493950e+02 -1.5141949966502526e+02 -1.4590019963749396e+02 -1.4590019932654357e+02 -1.5141903276015449e+02 -1.5141903041334569e+02 -1.4589997904834476e+02 -1.4589997875381587e+02
 -1.3481738859223935e+02 -1.3481738857667236e+02 -1.3481738853488801e+02 -1.3481735800465574e+02 -1.3481735798978355e+02 -1.3481735794985613e+02 -1.3481738848736330e+02 -1.3481738846588030e+02 -1.3481735790440931e+02 -1.3481735788382491e+02
 -1.5141848502724983e+02 -1.5141848528123938e+02 -1.5141848419498436e+02 -1.4589974299917327e+02 -1.4589974290206860e+02 -1.4589974254905840e+02 -1.5141819370219761e+02 -1.5141819364508328e+02 -1.5141819246958659e+02 -1.4589963362511244e+02
 -1.4589963351840041e+02 -1.4589963317775840e+02 -1.5141848106372771e+02 -1.5141847904266524e+02 -1.4589974204165097e+02 -1.4589974178100624e+02 -1.5141818998248675e+02 -1.5141818851027023e+02 -1.4589963272502285e+02 -1.4589963249976594e+02
 -1.3481731838955886e+02 -1.3481731837526067e+02 -1.3481731833708906e+02 -1.3481730010680153e+02 -1.3481730009203287e+02 -1.3481730005270023e+02 -1.3481731829363704e+02 -1.3481731827360915e+02 -1.3481730000664231e+02 -1.3481729998291124e+02
 -1.2367529850579405e+02 -1.2367529850414074e+02 -1.2367529849999919e+02 -1.2367535951972256e+02 -1.2367535951799437e+02 -1.2367535951364358e+02 -1.2367529849560712e+02 -1.2367529849368333e+02 -1.2367535950897646e+02 -1.2367535950688861e+02
 -1.1247387720494935e+02 -1.1247387720468578e+02 -1.1247387720401434e+02 -1.1247404643222441e+02 -1.1247404643181824e+02 -1.1247404643076760e+02 -1.1247387720325010e+02 -1.1247387720287263e+02 -1.1247404642954868e+02 -1.1247404642892896e+02
 -1.2367539594101102e+02 -1.2367539593891779e+02 -1.2367539593347236e+02 -1.2367540784023269e+02 -1.2367540783735032e+02 -1.2367540782915418e+02 -1.2367539592714897e+02 -1.2367539592382934e+02 -1.2367540781744542e+02 -1.2367540780858101e+02
 -1.1247415862214925e+02 -1.1247415862129394e+02 -1.1247415861892715e+02 -1.1247419784240807e+02 -1.1247419784071990e+02 -1.1247419783545355e+02 -1.1247415861579449e+02 -1.1247415861379605e+02 -1.1247419782660464e+02 -1.1247419781851676e+02
 -1.0121317230219915e+02 -1.0121317230212388e+02 -1.0121317230190853e+02 -1.0121354842047005e+02 -1.0121354842024617e+02 -1.0121354841963684e+02 -1.0121317230160059e+02 -1.0121317230140798e+02 -1.0121354841885893e+02 -1.0121354841841672e+02
 -8.9893320845698227e+01 -8.9893320846330923e+01 -8.9893320847823077e+01 -8.9894134924205161e+01 -8.9894134924678610e+01 -8.9894134925751018e+01 -8.9893320849218156e+01 -8.9893320849725001e+01 -8.9894134926650167e+01 -8.9894134926895902e+01
 -1.0121380012547780e+02 -1.0121380012479793e+02 -1.0121380012285347e+02 -1.0121388858513313e+02 -1.0121388858361449e+02 -1.0121388857873258e+02 -1.0121380012012936e+02 -1.0121380011826058e+02 -1.0121388857009403e+02 -1.0121388856160519e+02
 -8.9894681490007002e+01 -8.9894681490013767e+01 -8.9894681489723581e+01 -8.9894873920058856e+01 -8.9894873919220217e+01 -8.9894873915955387e+01 -8.9894681488637417e+01 -8.9894681487405819e+01 -8.9894873908756821e+01 -8.9894873900320590e+01
 -7.8507324513935657e+01 -7.8507717477086942e+01 -7.8507324522610190e+01 -7.8507717485761091e+01 -7.8507324543515381e+01 -7.8507717506669437e+01 -7.8508841807312692e+01 -7.8508841815989371e+01 -7.8508841836904523e+01 -7.8507324564324009e+01
 -7.8507717527483408e+01 -7.8507324572866793e+01 -7.8507717536030100e+01 -7.8508841857725884e+01 -7.8508841866276001e+01 -6.7062189824385072e+01 -6.7063007839110881e+01 -6.7062189922999423e+01 -6.7063007937752971e+01 -6.7062190161070419e+01
 -6.7063008175894538e+01 -6.7065357878588785e+01 -6.7065357977303805e+01 -6.7065358215622140e+01 -6.7062190399086916e+01 -6.7063008413983610e+01 -6.7062190497607020e+01 -6.7063008512535276e+01 -6.7065358453888592e+01 -6.7065358552514056e+01
 -7.8510539309521548e+01 -7.8510539318191846e+01 -7.8510539339091807e+01 -7.8512565130196180e+01 -7.8512565138825693e+01 -7.8512565159627030e+01 -7.8510539359898317e+01 -7.8510539368442622e+01 -7.8512565180334875e+01 -7.8512565188838579e+01
 -6.7068933377235311e+01 -6.7068933475980842e+01 -6.7068933714373031e+01 -6.7073245077866019e+01 -6.7073245176358654e+01 -6.7073245414140160e+01 -6.7068933952713806e+01 -6.7068934051370405e+01 -6.7073245651870224e+01 -6.7073245750274211e+01
 -5.5551094542824636e+01 -5.5552753627103876e+01 -5.5551095655560466e+01 -5.5552754740236203e+01 -5.5551098343053191e+01 -5.5552757428689382e+01 -5.5557555635856318e+01 -5.5557556750162412e+01 -5.5557559441450501e+01 -5.5551101032083302e+01
 -5.5552760118681832e+01 -5.5551102146312061e+01 -5.5552761233310456e+01 -5.5557562134279138e+01 -5.5557563250083064e+01 -4.3967277603258111e+01 -4.3970478720826399e+01 -4.3967290138413489e+01 -4.3970491260560514e+01 -4.3967320439732617e+01
 -4.3970521572938289e+01 -4.3979870302686237e+01 -4.3979882858231747e+01 -4.3979913208800227e+01 -4.3967350796829159e+01 -4.3970551941092431e+01 -4.3967363387736562e+01 -4.3970564536578635e+01 -4.3979943615165659e+01 -4.3979956226483992e+01
 -5.5564966158747652e+01 -5.5564967274367760e+01 -5.5564969968830212e+01 -5.5574077944114741e+01 -5.5574079058546786e+01 -5.5574081750142099e+01 -5.5564972664836219e+01 -5.5564973781957377e+01 -5.5574084443282757e+01 -5.5574085559217963e+01
 -4.3994744814525653e+01 -4.3994757395522100e+01 -4.3994787807605405e+01 -4.4013706157286194e+01 -4.4013718747341137e+01 -4.4013749181388938e+01 -4.3994818275584620e+01 -4.3994830912453011e+01 -4.4013779671466651e+01 -4.4013792317527667e+01
 -3.2298037164138101e+01 -3.2303627251957110e+01 -3.2298177951455173e+01 -3.2303768082649377e+01 -3.2298519144824702e+01 -3.2304109380840920e+01 -3.2320438038312680e+01 -3.2320579053729269e+01 -3.2320920798438998e+01 -3.2298862236335808e+01
 -3.2304452576967407e+01 -3.2299004923395351e+01 -3.2304595307193992e+01 -3.2321264441542375e+01 -3.2321407356946125e+01 -2.6423668086822495e+01 -2.6425480039645837e+01 -2.6424352116102341e+01 -2.6430363832951592e+01 -2.6431047968134177e+01
 -2.6426159329449966e+01 -2.6426020579342840e+01 -2.6432716691723833e+01 -2.6427816036789721e+01 -2.0514477772378942e+01 -2.0517277457845829e+01 -2.0516284829449351e+01 -2.0519084199473493e+01 -2.0521756758330113e+01 -2.0524556353981925e+01
 -2.0524203556149569e+01 -2.0526009585997429e+01 -2.0531482352722037e+01 -2.6439001924723627e+01 -2.6450952661850614e+01 -2.6451637560423066e+01 -2.6439681548256523e+01 -2.6453308132109875e+01 -2.6441339064323493e+01 -2.0531162106346233e+01
 -2.0533962040399206e+01 -2.0544840448760823e+01 -2.0547642373643235e+01 -2.0540888855306402e+01 -2.0554574042745177e+01 -2.6427714397084337e+01 -2.6434410765093823e+01 -2.6429497619062580e+01 -2.6428423822836017e+01 -2.6435120291980066e+01
 -2.6430201824585332e+01 -2.0531384970720197e+01 -2.0533190271062789e+01 -2.0538663613090058e+01 -2.0534440736799009e+01 -2.0536245704712609e+01 -2.0541719234100835e+01 -2.6455004053563702e+01 -2.6443021447836539e+01 -2.6455714343656371e+01
 -2.6443725979444789e+01 -2.0548070849708754e+01 -2.0561760928531402e+01 -2.0551126724986446e+01 -2.0564818830559414e+01 -3.2348360121100995e+01 -3.2348501527642092e+01 -3.2348844219141931e+01 -3.2386416116961193e+01 -3.2386557926348047e+01
 -3.2386901595194317e+01 -3.2349188812557273e+01 -3.2349332122601631e+01 -3.2387247172717068e+01 -3.2387390892355270e+01 -2.6466976965918654e+01 -2.6486666782670380e+01 -2.6487353861004099e+01 -2.6467657977781663e+01 -2.6489029727688358e+01
 -2.6469318860864981e+01 -2.0563322484062525e+01 -2.0566127632278281e+01 -2.0587192306647442e+01 -2.0590003288090060e+01 -2.0573067178182900e+01 -2.0596957133407358e+01 -2.6510714382091102e+01 -2.6538575984196068e+01 -2.6539266524558762e+01
 -2.6511398337392432e+01 -2.6540950828772456e+01 -2.6513066379988306e+01 -2.0617189297925538e+01 -2.0620008017288999e+01 -2.0654015134646041e+01 -2.0656844159110381e+01 -2.0626980861494527e+01 -2.0663842388839271e+01 -2.6490730989589153e+01
 -2.6471004630112059e+01 -2.6491443504760817e+01 -2.6471710568636723e+01 -2.0580262066680074e+01 -2.0604166631664956e+01 -2.0583323316880563e+01 -2.0607234024270266e+01 -2.6542660641393446e+01 -2.6514759384739602e+01 -2.6543376731525164e+01
 -2.6515468342529104e+01 -2.0634209815132397e+01 -2.0671097456425127e+01 -2.0637285400431647e+01 -2.0674184072689350e+01 -1.4553580129819771e+01 -1.4555181783835705e+01 -1.4564389827487078e+01 -1.4565989964076927e+01 -1.4560165854133242e+01
 -1.4570971612115343e+01 -1.4592063641668906e+01 -1.4593661605933534e+01 -1.4598638636347491e+01 -8.4780417878959522e+00 -8.4777952375100316e+00 -8.4874986391396234e+00 -8.4784587997851979e+00 -8.5152242916126983e+00 -8.4872599728627467e+00
 -8.5158549646122594e+00 -8.4879116685657774e+00 -8.5154510221710247e+00 -8.4796107064171018e+00 -8.4890549540492461e+00 -8.4812092136949744e+00 -8.5185718179910790e+00 -8.4906525347127886e+00 -8.5169804134393114e+00 -8.5610822514051339e+00
 -8.6211402408515045e+00 -8.5608756107724897e+00 -8.6217583715624642e+00 -8.5614951725137107e+00 -8.6213168992745661e+00 -8.5625925720160332e+00 -8.6244309397659684e+00 -8.5641898011440034e+00 -8.6228153792252371e+00 -1.4568977449953790e+01
 -1.4579783033914660e+01 -1.4582244677208994e+01 -1.4593055120662674e+01 -1.4607449801289670e+01 -1.4620733907193193e+01 -8.4837756784166274e+00 -8.4932137430489867e+00 -8.4869726852753651e+00 -8.5243213989002697e+00 -8.4964129608735774e+00
 -8.5211212510674645e+00 -8.4913094647193610e+00 -8.5007475931804137e+00 -8.4964511523093869e+00 -8.5338091901471813e+00 -8.5058948290046974e+00 -8.5286522955921740e+00 -8.5667134367384463e+00 -8.6301500170851249e+00 -8.5699267089255908e+00
 -8.6269118226697703e+00 -8.5742429751254150e+00 -8.6396629093992701e+00 -8.5794268089671153e+00 -8.6344368856726970e+00 -1.4622262349199127e+01 -1.4623858375439973e+01 -1.4628830053776518e+01 -1.4635610651589433e+01 -1.4637205423487018e+01
 -1.4642173913831385e+01 -8.6898804713592792e+00 -8.7553434878818877e+00 -8.6897514468141779e+00 -8.7559659875240659e+00 -8.6903768060381950e+00 -8.7554093331515563e+00 -8.6913718292220334e+00 -8.7585808322463308e+00 -8.6930262967912189e+00
 -8.7568804146266483e+00 -8.8035075334823016e+00 -8.8215349249484962e+00 -8.8034966039665736e+00 -8.8221449094569042e+00 -8.8041122891141637e+00 -8.8215190415712090e+00 -8.8049565344173164e+00 -8.8247106253408027e+00 -8.8066948741160100e+00
 -8.8229547945103839e+00 -1.4637639972708051e+01 -1.4650936114820079e+01 -1.4650982629328736e+01 -1.4664283626167883e+01 -8.6954400991456033e+00 -8.7642517824638677e+00 -8.6987243231608034e+00 -8.7609121175518894e+00 -8.7029597065572020e+00
 -8.7737888465509712e+00 -8.7082519763704553e+00 -8.7684213476378172e+00 -8.8089567590621396e+00 -8.8303484787126933e+00 -8.8123435930739209e+00 -8.8269396829158691e+00 -8.8164575687883282e+00 -8.8398933391416197e+00 -8.8218877159505276e+00
 -8.8344353957404582e+00 -5.3173169373879849e+00 -5.3312000276059726e+00 -5.3177973354593302e+00 -5.3317902385294440e+00 -5.3166834868333250e+00 -5.3304731146780302e+00 -5.3762287276672556e+00 -5.3755493120277498e+00 -5.3747069285032767e+00
 -2.0459860402124899e+00 -2.0424262218225118e+00 -2.0555464940954002e+00 -2.0498700940148722e+00 -2.0389921691384942e+00 -2.0454825192675372e+00 -2.0964129348985576e+00 -2.0897855893983328e+00 -2.0845434455413261e+00 -5.3165214434567361e+00
 -5.3302616878261526e+00 -5.3170332695308700e+00 -5.3307503732395594e+00 -5.3744173901745720e+00 -5.3748615236381987e+00 -2.0371013944602083e+00 -2.0432927873312821e+00 -2.0364192140446753e+00 -2.0425224645488709e+00 -2.0819893351398662e+00
 -2.0810827791303659e+00 -5.4555987291327135e+00 -5.4563027669826702e+00 -5.4547134205175256e+00 -5.5779091580845721e+00 -5.5772544250202145e+00 -5.5764121035073542e+00 -2.1875194657041983e+00 -2.1807018216275851e+00 -2.1752526376407659e+00
 -2.3666886071252415e+00 -2.3603667277375719e+00 -2.3553257230392921e+00 -5.4543773403399252e+00 -5.4547828985107847e+00 -5.5760670609229805e+00 -5.5764398208548496e+00 -2.1725631203949507e+00 -2.1715716480714931e+00 -2.3527168094394315e+00
 -2.3516713755853247e+00 -1.2199965236541521e+00 -1.2137842007323059e+00 -1.2234789178587127e+00 -1.2079432222002282e+00 -3.9676488100813956e-01 -3.8885955918353371e-01 -3.9411062354280318e-01 -3.5828922046562300e-01 3.5574042969596015e-01
 3.5653564557716527e-01 3.5632622314598228e-01 3.8199504579274757e-01 4.2330092626196175e-01 4.2331959164149568e-01 4.2331912163996438e-01 4.3839838975199491e-01 -1.2099559548982637e+00 -1.2020105004648174e+00 -3.8576333685632591e-01
 -3.5214847596339394e-01 3.5666432003566156e-01 3.8216691570054617e-01 4.2331989550966453e-01 4.3840313196147829e-01 -1.2528072138610264e+00 -1.2351093390244425e+00 -4.0915955089717471e-01 -3.7010243768954842e-01 3.5573031474998967e-01