DF-ISE text

Info {
  version = 1.0
  type    = dataset
  dimension   = 3
  nb_vertices = 5293
  nb_edges    = 23303
  nb_faces    = 30690
  nb_elements = 12980
  nb_regions  = 3
  datasets    = [ "ElectrostaticPotential" "ContactExternalVoltage" "ContactCurrentFlux" "ContactCharge" "eQuasiFermiPotential" "hQuasiFermiPotential" "QuasiFermiPotential" "LatticeTemperature" ]
  functions   = [ ElectrostaticPotential ContactExternalVoltage ContactCurrentFlux ContactCharge eQuasiFermiPotential hQuasiFermiPotential QuasiFermiPotential LatticeTemperature ]
}

Data {

  Dataset ("ElectrostaticPotential") {
    function  = ElectrostaticPotential
    type      = scalar
    dimension = 1
    location  = vertex
    validity  = [ "substrate" ]
    Values (5293) {
 -1.1537888985310795e+02 -1.1537067152494660e+02 -1.1537888985310795e+02 -1.1537888985310795e+02 -1.1537067207274202e+02 -1.1537067166189128e+02 -1.1539459903196267e+02 -1.1538638155250447e+02 -1.1535550510867748e+02 -1.1535550618036821e+02
 -1.1535550537655233e+02 -1.1537121855230286e+02 -1.1532334213608939e+02 -1.1532334732283935e+02 -1.1532334337393850e+02 -1.1533907998105448e+02 -1.1526829146797331e+02 -1.1526863848606395e+02 -1.1526835209169890e+02 -1.1528805862602741e+02
 -1.1490554710621836e+02 -1.1491751777071319e+02 -1.1490744868371418e+02 -1.1497126198407300e+02 -1.1447628946309833e+02 -1.1449393844506547e+02 -1.1447874036024736e+02 -1.1452698615536788e+02 -1.1404431684334010e+02 -1.1406459096196838e+02
 -1.1404677164444720e+02 -1.1408168110748807e+02 -1.1537888985310795e+02 -1.1537067166189489e+02 -1.1539459903196267e+02 -1.1538638168944266e+02 -1.1535550537657981e+02 -1.1537121881989474e+02 -1.1532334339928755e+02 -1.1533908114125298e+02
 -1.1526836329376255e+02 -1.1528810953997360e+02 -1.1490790800143324e+02 -1.1497493163015004e+02 -1.1447952129611376e+02 -1.1453168134808428e+02 -1.1404775674714335e+02 -1.1408631668808320e+02 -1.1054568787500611e+02 -1.1055255584648486e+02
 -1.1054606257191642e+02 -1.1055390396516516e+02 -1.1054626310128648e+02 -1.1055452835202557e+02 -1.1537888985310795e+02 -1.1537067207274568e+02 -1.1539459903196267e+02 -1.1538638158674060e+02 -1.1535550618043848e+02 -1.1537121861921274e+02
 -1.1532334742676896e+02 -1.1533908029326068e+02 -1.1526868475954004e+02 -1.1528809100022771e+02 -1.1491944871372401e+02 -1.1497405166633486e+02 -1.1449751445671461e+02 -1.1453165851995134e+02 -1.1406949899016729e+02 -1.1408766327810834e+02
 -1.1539459903196267e+02 -1.1538638172367915e+02 -1.1537121888680667e+02 -1.1533908145568800e+02 -1.1528814388506572e+02 -1.1497791798875666e+02 -1.1453668655163249e+02 -1.1409271499448498e+02 -1.1055678758347882e+02 -1.1055828593653449e+02
 -1.1055899140332842e+02 -1.1537888985310795e+02 -1.1537067166189090e+02 -1.1539459903196267e+02 -1.1538638153757962e+02 -1.1535550537654780e+02 -1.1537121852313504e+02 -1.1532334336832565e+02 -1.1533907985334545e+02 -1.1526834959929261e+02
 -1.1528805208784074e+02 -1.1490734624915603e+02 -1.1497078280428381e+02 -1.1447855436328175e+02 -1.1452628191773395e+02 -1.1404652153839426e+02 -1.1408087708803332e+02 -1.1537888985310795e+02 -1.1537067151002091e+02 -1.1537717774777707e+02
 -1.1536895992272305e+02 -1.1535550507947625e+02 -1.1535379357755956e+02 -1.1532334199666889e+02 -1.1532163067878187e+02 -1.1526828292046217e+02 -1.1526629137178577e+02 -1.1490526800194321e+02 -1.1491251206116183e+02 -1.1447586533661489e+02
 -1.1449041353687676e+02 -1.1404381482791058e+02 -1.1406226675522723e+02 -1.1054592680382022e+02 -1.1055365405160984e+02 -1.1054547912198912e+02 -1.1055212944710480e+02 -1.1539459903196267e+02 -1.1538638157181565e+02 -1.1537121859004449e+02
 -1.1533908016510291e+02 -1.1528808406575024e+02 -1.1497353363024261e+02 -1.1453088410877059e+02 -1.1408676582126496e+02 -1.1537717774777707e+02 -1.1536895991467875e+02 -1.1535379356189948e+02 -1.1532163072781809e+02 -1.1526633838797738e+02
 -1.1491432679760855e+02 -1.1449381700706790e+02 -1.1406697640061098e+02 -1.1055799571102210e+02 -1.1055629717290833e+02 -1.0701547220691597e+02 -1.0701751883466734e+02 -1.0701551420167381e+02 -1.0701762799099875e+02 -1.0701553308031620e+02
 -1.0701768378392957e+02 -1.0346597413553816e+02 -1.0346663817761419e+02 -1.0346597752762317e+02 -1.0346664622683483e+02 -1.0346597657538584e+02 -1.0346664784653935e+02 -1.0701968266738466e+02 -1.0701980783460773e+02 -1.0701987241535137e+02
 -1.0346763440717903e+02 -1.0346764387593605e+02 -1.0346764593724306e+02 -1.0701546993082594e+02 -1.0701756463999627e+02 -1.0701540813139378e+02 -1.0701742472257422e+02 -1.0346596505072731e+02 -1.0346663066011327e+02 -1.0346595637501865e+02
 -1.0346661588100650e+02 -1.0701973382316640e+02 -1.0701957290353529e+02 -1.0346762587188205e+02 -1.0346760862111643e+02 -1.1537888985310795e+02 -1.1537067207274568e+02 -1.1539459903196267e+02 -1.1538638158674067e+02 -1.1535550618045012e+02
 -1.1537121861921439e+02 -1.1532334744816083e+02 -1.1533908029826554e+02 -1.1526869430653707e+02 -1.1528809545586839e+02 -1.1491984824557026e+02 -1.1497447766655542e+02 -1.1449828200706270e+02 -1.1453247559068336e+02 -1.1407059431951512e+02
 -1.1408882333428144e+02 -1.1539459903196267e+02 -1.1538638172367922e+02 -1.1537121888680836e+02 -1.1533908146082780e+02 -1.1528814846223429e+02 -1.1497835694799259e+02 -1.1453752780464791e+02 -1.1409390797437851e+02 -1.1055857282413545e+02
 -1.1056008703239408e+02 -1.1056080130738283e+02 -1.1537888985310795e+02 -1.1537067207274568e+02 -1.1539459903196267e+02 -1.1538638158674067e+02 -1.1535550618045220e+02 -1.1537121861921462e+02 -1.1532334745197619e+02 -1.1533908029911166e+02
 -1.1526869600934036e+02 -1.1528809620988193e+02 -1.1491991954709582e+02 -1.1497454979400004e+02 -1.1449842026099905e+02 -1.1453261616428426e+02 -1.1407079437214199e+02 -1.1408902687742946e+02 -1.1539459903196267e+02 -1.1538638172367922e+02
 -1.1537121888680861e+02 -1.1533908146167984e+02 -1.1528814922175781e+02 -1.1497842982895030e+02 -1.1453766983360356e+02 -1.1409411355311745e+02 -1.1055900722933330e+02 -1.1056052271932936e+02 -1.1056123755535917e+02 -1.1539459903196267e+02
 -1.1538638157181572e+02 -1.1537121859004613e+02 -1.1533908017005643e+02 -1.1528808847537486e+02 -1.1497395504690373e+02 -1.1453169243282569e+02 -1.1408791363946689e+02 -1.1537717774777707e+02 -1.1536895991467871e+02 -1.1535379356191399e+02
 -1.1532163075277199e+02 -1.1526634871722536e+02 -1.1491471870417519e+02 -1.1449456972660005e+02 -1.1406805118779626e+02 -1.1055978735144181e+02 -1.1055806845586496e+02 -1.1539459903196267e+02 -1.1538638157181572e+02 -1.1537121859004635e+02
 -1.1533908017089713e+02 -1.1528808922450415e+02 -1.1497402667491444e+02 -1.1453183203978278e+02 -1.1408811580825234e+02 -1.1537717774777707e+02 -1.1536895991467871e+02 -1.1535379356191662e+02 -1.1532163075726756e+02 -1.1526635057794974e+02
 -1.1491478934038378e+02 -1.1449470655910582e+02 -1.1406824917162452e+02 -1.1056022144262133e+02 -1.1055850056587919e+02 -1.0702093531684694e+02 -1.0702106269160009e+02 -1.0702112803971357e+02 -1.0346833538210136e+02 -1.0346834504242098e+02
 -1.0346834696287152e+02 -1.0702127820617311e+02 -1.0702140577426945e+02 -1.0702147107022267e+02 -1.0346853630697240e+02 -1.0346854597304952e+02 -1.0346854782341603e+02 -1.0702098519136011e+02 -1.0702082055264650e+02 -1.0346832601961430e+02
 -1.0346830814906612e+02 -1.0702132754447756e+02 -1.0702116240457120e+02 -1.0346852670193311e+02 -1.0346850872213291e+02 -9.9900267645348904e+01 -9.9900507741423766e+01 -9.9900267634555888e+01 -9.9900508033241252e+01 -9.9900266620299746e+01
 -9.9900507116884924e+01 -9.6319227843132495e+01 -9.6319317148373159e+01 -9.6319227751842845e+01 -9.6319317066311712e+01 -9.6319227453345135e+01 -9.6319316755389636e+01 -9.9900952453694885e+01 -9.9900952832093978e+01 -9.9900951833663143e+01
 -9.6319506415874940e+01 -9.6319506329668556e+01 -9.6319505988173987e+01 -9.9900264359272484e+01 -9.9900504252066185e+01 -9.9900263004812331e+01 -9.9900502376352136e+01 -9.6319227050940270e+01 -9.6319316297939650e+01 -9.6319226851448178e+01
 -9.6319316060922105e+01 -9.9900948529764889e+01 -9.9900946348637632e+01 -9.6319505473317719e+01 -9.6319505203861752e+01 -8.9112054949306213e+01 -8.9112078396373235e+01 -8.9112054937472635e+01 -8.9112078384238018e+01 -8.9112054906449544e+01
 -8.9112078351729508e+01 -8.9112134002599902e+01 -8.9112133989558757e+01 -8.9112133954294848e+01 -8.9112054872037817e+01 -8.9112078314827755e+01 -8.9112054856735739e+01 -8.9112078298176314e+01 -8.9112133913867552e+01 -8.9112133895517985e+01
 -9.9901305016996602e+01 -9.9901305390997976e+01 -9.9901304308734211e+01 -9.6319669936053117e+01 -9.6319669843316689e+01 -9.6319669479788075e+01 -9.9901406098022079e+01 -9.9901406465376098e+01 -9.9901405355158133e+01 -9.6319717217574890e+01
 -9.6319717122350937e+01 -9.6319716751648130e+01 -9.9901300825964370e+01 -9.9901298539892792e+01 -9.6319668934445389e+01 -9.6319668649735050e+01 -9.9901401828497953e+01 -9.9901399519251925e+01 -9.6319716197528351e+01 -9.6319715908694306e+01
 -8.9112191067270331e+01 -8.9112191053475854e+01 -8.9112191016188405e+01 -8.9112222003297774e+01 -8.9112221989228999e+01 -8.9112221951236222e+01 -8.9112190973455327e+01 -8.9112190954065284e+01 -8.9112221907737833e+01 -8.9112221888012925e+01
 -8.1845281935942268e+01 -8.1845298474828567e+01 -8.1845281934681637e+01 -8.1845298473520970e+01 -8.1845281931537016e+01 -8.1845298470260744e+01 -8.1845343251673739e+01 -8.1845343250283108e+01 -8.1845343246808483e+01 -8.1845281928223457e+01
 -8.1845298466815379e+01 -8.1845281926781766e+01 -8.1845298465318848e+01 -8.1845343243128440e+01 -8.1845343241529093e+01 -7.4518963665026888e+01 -7.4518992656952761e+01 -7.4518963664835965e+01 -7.4518992656751820e+01 -7.4518963664343957e+01
 -7.4518992656248344e+01 -7.4519074739785708e+01 -7.4519074739577121e+01 -7.4519074739056450e+01 -7.4518963663777939e+01 -7.4518992655677565e+01 -7.4518963663498965e+01 -7.4518992655402556e+01 -7.4519074738469243e+01 -7.4519074738188124e+01
 -8.1845404233311314e+01 -8.1845404231852356e+01 -8.1845404228206533e+01 -8.1845467256417820e+01 -8.1845467254925893e+01 -8.1845467251198784e+01 -8.1845404224346538e+01 -8.1845404222670126e+01 -8.1845467247255215e+01 -8.1845467245543603e+01
 -7.4519196293890204e+01 -7.4519196293674170e+01 -7.4519196293135479e+01 -7.4519337724248814e+01 -7.4519337724021639e+01 -7.4519337723455834e+01 -7.4519196292530310e+01 -7.4519196292241872e+01 -7.4519337722823309e+01 -7.4519337722523602e+01
 -6.7133000413320460e+01 -6.7133061430863194e+01 -6.7133000413274061e+01 -6.7133061430810571e+01 -6.7133000413130617e+01 -6.7133061430663162e+01 -6.7133235298523005e+01 -6.7133235298468620e+01 -6.7133235298318510e+01 -6.7133000412909823e+01
 -6.7133061430444968e+01 -6.7133000412768467e+01 -6.7133061430309851e+01 -6.7133235298098953e+01 -6.7133235297964106e+01 -5.9687135906981545e+01 -5.9687265690701551e+01 -5.9687135907451072e+01 -5.9687265691165884e+01 -5.9687135908550736e+01
 -5.9687265692262336e+01 -5.9687636186811616e+01 -5.9687636187274528e+01 -5.9687636188369012e+01 -5.9687135909566294e+01 -5.9687265693280608e+01 -5.9687135909930007e+01 -5.9687265693649820e+01 -5.9687636189386623e+01 -5.9687636189756326e+01
 -6.7133495805423124e+01 -6.7133495805366096e+01 -6.7133495805209805e+01 -6.7133803563200573e+01 -6.7133803563134009e+01 -6.7133803562954554e+01 -6.7133495804984392e+01 -6.7133495804847357e+01 -6.7133803562705879e+01 -6.7133803562559336e+01
 -5.9688193200065520e+01 -5.9688193200525333e+01 -5.9688193201612577e+01 -5.9688854204826058e+01 -5.9688854205274055e+01 -5.9688854206332664e+01 -5.9688193202623324e+01 -5.9688193202990469e+01 -5.9688854207314698e+01 -5.9688854207670168e+01
 -1.1537888985310795e+02 -1.1537067207274568e+02 -1.1539459903196267e+02 -1.1538638158674067e+02 -1.1535550618044950e+02 -1.1537121861921435e+02 -1.1532334744702410e+02 -1.1533908029801850e+02 -1.1526869379919992e+02 -1.1528809523570671e+02
 -1.1491982699626627e+02 -1.1497445660357847e+02 -1.1449824049928765e+02 -1.1453243420096086e+02 -1.1407053351179405e+02 -1.1408876259409682e+02 -1.1539459903196267e+02 -1.1538638172367922e+02 -1.1537121888680829e+02 -1.1533908146058177e+02
 -1.1528814824291084e+02 -1.1497833589933389e+02 -1.1453748643362808e+02 -1.1409384725337206e+02 -1.1055840641362173e+02 -1.1055992062818424e+02 -1.1056063490531741e+02 -1.1537888985310795e+02 -1.1537067207274562e+02 -1.1539459903196267e+02
 -1.1538638158674057e+02 -1.1535550618043615e+02 -1.1537121861921248e+02 -1.1532334742272714e+02 -1.1533908029238304e+02 -1.1526868295669344e+02 -1.1528809021861389e+02 -1.1491937329760863e+02 -1.1497397693138764e+02 -1.1449736915118440e+02
 -1.1453151365580948e+02 -1.1406929008465478e+02 -1.1408745463180244e+02 -1.1539459903196267e+02 -1.1538638172367915e+02 -1.1537121888680642e+02 -1.1533908145481401e+02 -1.1528814310646410e+02 -1.1497784330830889e+02 -1.1453654175975711e+02
 -1.1409250642320951e+02 -1.1055635777839156e+02 -1.1055785615574753e+02 -1.1055856163164657e+02 -1.1539459903196267e+02 -1.1538638157181572e+02 -1.1537121859004607e+02 -1.1533908016980921e+02 -1.1528808825505826e+02 -1.1497393397877025e+02
 -1.1453165103498630e+02 -1.1408785288937506e+02 -1.1537717774777707e+02 -1.1536895991467871e+02 -1.1535379356191318e+02 -1.1532163075141740e+02 -1.1526634815654405e+02 -1.1491469741408088e+02 -1.1449452818732902e+02 -1.1406799035579472e+02
 -1.1055962094249087e+02 -1.1055790203790043e+02 -1.1539459903196267e+02 -1.1538638157181563e+02 -1.1537121859004422e+02 -1.1533908016422460e+02 -1.1528808328357923e+02 -1.1497345887620317e+02 -1.1453073921457691e+02 -1.1408655713837798e+02
 -1.1537717774777707e+02 -1.1536895991467871e+02 -1.1535379356189650e+02 -1.1532163072300078e+02 -1.1526633639521961e+02 -1.1491425123226136e+02 -1.1449367158458287e+02 -1.1406676740427767e+02 -1.1055756591477724e+02 -1.1055586734311797e+02
 -1.0702076023721192e+02 -1.0702088761241542e+02 -1.0702095296031082e+02 -1.0346819501513383e+02 -1.0346820467540823e+02 -1.0346820659560886e+02 -1.0701928912276279e+02 -1.0701941429180752e+02 -1.0701947887221348e+02 -1.0346734333072173e+02
 -1.0346735279936735e+02 -1.0346735485990730e+02 -1.0702081011046471e+02 -1.0702064547053706e+02 -1.0346818565193549e+02 -1.0346816778115125e+02 -1.0701934027515344e+02 -1.0701917935132229e+02 -1.0346733479318345e+02 -1.0346731754161071e+02
 -1.1537888985310795e+02 -1.1537067206527880e+02 -1.1539459903196267e+02 -1.1538638154877296e+02 -1.1535550616575929e+02 -1.1537121854500901e+02 -1.1532334724055794e+02 -1.1533907994613209e+02 -1.1526862861379144e+02 -1.1528805434238863e+02
 -1.1491714269834785e+02 -1.1497089038611257e+02 -1.1449328328721046e+02 -1.1452633308358294e+02 -1.1406372006252650e+02 -1.1408081129590416e+02 -1.1539459903196267e+02 -1.1538638168571119e+02 -1.1537121881260109e+02 -1.1533908110635350e+02
 -1.1528810527215460e+02 -1.1497456028127635e+02 -1.1453102858431282e+02 -1.1408544717391283e+02 -1.1055160529261140e+02 -1.1055295349638152e+02 -1.1055357791686590e+02 -1.1537717774777707e+02 -1.1536895927559549e+02 -1.1537717774777707e+02
 -1.1536895942328758e+02 -1.1535379231127243e+02 -1.1535379260022165e+02 -1.1532162445295216e+02 -1.1532162580360010e+02 -1.1526587040654998e+02 -1.1526593757296507e+02 -1.1489938877856655e+02 -1.1490129456370641e+02 -1.1447098975584890e+02
 -1.1447344321698439e+02 -1.1403984853151495e+02 -1.1404230470006009e+02 -1.1537717774777707e+02 -1.1536895942329164e+02 -1.1535379260025495e+02 -1.1532162583390387e+02 -1.1526594999738977e+02 -1.1490175490352387e+02 -1.1447422493036738e+02
 -1.1404329035010143e+02 -1.1054386391629265e+02 -1.1054423872244922e+02 -1.1054443930301652e+02 -1.1539459903196267e+02 -1.1538638153384809e+02 -1.1537121851584116e+02 -1.1533907981841915e+02 -1.1528804780149805e+02 -1.1497041113216454e+02
 -1.1452562873823952e+02 -1.1408000715391196e+02 -1.1537717774777707e+02 -1.1536895991467409e+02 -1.1535379356179976e+02 -1.1532163058755353e+02 -1.1526628046338115e+02 -1.1491213626238168e+02 -1.1448975787523494e+02 -1.1406139551949499e+02
 -1.1055270354315205e+02 -1.1055117882713822e+02 -1.1537717774777707e+02 -1.1536895942328708e+02 -1.1535379260021597e+02 -1.1532162579688735e+02 -1.1526593480812259e+02 -1.1490119187526335e+02 -1.1447325699436453e+02 -1.1404205439772895e+02
 -1.1537717774777707e+02 -1.1536895925949834e+02 -1.1535379227977319e+02 -1.1532162430035964e+02 -1.1526586092991234e+02 -1.1489910897147358e+02 -1.1447056510639412e+02 -1.1403934613583739e+02 -1.1054410289842383e+02 -1.1054365507647923e+02
 -1.0701684060300362e+02 -1.0701694976522744e+02 -1.0701700555833663e+02 -1.0346619658895803e+02 -1.0346620463793067e+02 -1.0346620625563135e+02 -1.0701454492154797e+02 -1.0701458692354035e+02 -1.0701460580147264e+02 -1.0346544536205990e+02
 -1.0346544875334440e+02 -1.0346544779694197e+02 -1.0701688640177760e+02 -1.0701674647252150e+02 -1.0346618906544269e+02 -1.0346617428395524e+02 -1.0701454263274125e+02 -1.0701448081648364e+02 -1.0346543626472011e+02 -1.0346542758397499e+02
 -9.9901209705618527e+01 -9.9901210079559476e+01 -9.9901208997131292e+01 -9.6319617862512658e+01 -9.6319617769725284e+01 -9.6319617406068659e+01 -9.9900763649210802e+01 -9.9900764027398935e+01 -9.9900763028378393e+01 -9.6319405857458520e+01
 -9.6319405771057461e+01 -9.6319405429055763e+01 -9.9901205514171366e+01 -9.9901203228011568e+01 -9.6319616860589605e+01 -9.6319616575819154e+01 -9.9900759723764907e+01 -9.9900757542283543e+01 -9.6319404913620502e+01 -9.6319404643884752e+01
 -8.9112214704742527e+01 -8.9112214690901098e+01 -8.9112214653496494e+01 -8.9112176988097872e+01 -8.9112176974870508e+01 -8.9112176939123003e+01 -8.9112214610639427e+01 -8.9112214591194942e+01 -8.9112176898143545e+01 -8.9112176879525251e+01
 -9.9900239471627756e+01 -9.9900239762824043e+01 -9.9900238844651597e+01 -9.6319179089571776e+01 -9.6319179006899105e+01 -9.6319178694283437e+01 -9.9899963024293442e+01 -9.9899963012187641e+01 -9.9899961993896198e+01 -9.6319074686201816e+01
 -9.6319074593599552e+01 -9.6319074291173280e+01 -9.9900235977428650e+01 -9.9900234100368081e+01 -9.6319178234663951e+01 -9.6319177996425921e+01 -9.9899959726919747e+01 -9.9899958368596501e+01 -9.6319073883003881e+01 -9.6319073679674531e+01
 -8.9112133571033425e+01 -8.9112133558297742e+01 -8.9112133524123266e+01 -8.9112114174352300e+01 -8.9112114161208808e+01 -8.9112114126236264e+01 -8.9112133485069108e+01 -8.9112133467182190e+01 -8.9112114085917256e+01 -8.9112114066545956e+01
 -8.1845520741222657e+01 -8.1845520739717372e+01 -8.1845520735955915e+01 -8.1845558423230884e+01 -8.1845558421655468e+01 -8.1845558417700573e+01 -8.1845520731973622e+01 -8.1845520730243535e+01 -8.1845558413470499e+01 -8.1845558411601473e+01
 -7.4519477050917757e+01 -7.4519477050655539e+01 -7.4519477050001697e+01 -7.4519593496621056e+01 -7.4519593496228282e+01 -7.4519593495228449e+01 -7.4519477049274798e+01 -7.4519477048932984e+01 -7.4519593494091197e+01 -7.4519593493538622e+01
 -8.1845579461874337e+01 -8.1845579459967482e+01 -8.1845579455037679e+01 -8.1845586002346110e+01 -8.1845585999766854e+01 -8.1845585992605336e+01 -8.1845579449411076e+01 -8.1845579446632584e+01 -8.1845585983135194e+01 -8.1845585977261308e+01
 -7.4519670424493427e+01 -7.4519670423693341e+01 -7.4519670421514448e+01 -7.4519697263876765e+01 -7.4519697262358378e+01 -7.4519697257781786e+01 -7.4519670418731351e+01 -7.4519670417124104e+01 -7.4519697250796952e+01 -7.4519697245673740e+01
 -6.7134111842049421e+01 -6.7134111841945725e+01 -6.7134111841673160e+01 -6.7134373603569728e+01 -6.7134373603330374e+01 -6.7134373602699128e+01 -6.7134111841325009e+01 -6.7134111841134299e+01 -6.7134373601926598e+01 -6.7134373601517467e+01
 -5.9689519590730043e+01 -5.9689519591135799e+01 -5.9689519592088949e+01 -5.9690087184336882e+01 -5.9690087184599342e+01 -5.9690087185175187e+01 -5.9689519592959279e+01 -5.9689519593265572e+01 -5.9690087185601655e+01 -5.9690087185679872e+01
 -6.7134548719889722e+01 -6.7134548719236491e+01 -6.7134548717404726e+01 -6.7134610251305986e+01 -6.7134610249922929e+01 -6.7134610245627741e+01 -6.7134548714940863e+01 -6.7134548713419790e+01 -6.7134610238715666e+01 -6.7134610233264027e+01
 -5.9690468264593768e+01 -5.9690468264434337e+01 -5.9690468263785831e+01 -5.9690602432056842e+01 -5.9690602431157217e+01 -5.9690602427983727e+01 -5.9690468262474575e+01 -5.9690468261380857e+01 -5.9690602421971668e+01 -5.9690602416474555e+01
 -5.2180819936195618e+01 -5.2181093906952150e+01 -5.2180819942384353e+01 -5.2181093913137012e+01 -5.2180819957289636e+01 -5.2181093928040781e+01 -5.2181877812611724e+01 -5.2181877818795606e+01 -5.2181877833698394e+01 -5.2180819972104558e+01
 -5.2181093942859519e+01 -5.2180819978176480e+01 -5.2181093948936713e+01 -5.2181877848517409e+01 -5.2181877854595456e+01 -4.4612898758141597e+01 -4.4613468942995603e+01 -4.4612898828838844e+01 -4.4613469013701895e+01 -4.4612898999503408e+01
 -4.4613469184394830e+01 -4.4615107131444859e+01 -4.4615107202177107e+01 -4.4615107372933956e+01 -4.4612899170104662e+01 -4.4613469355029210e+01 -4.4612899240706618e+01 -4.4613469425648006e+01 -4.4615107543633471e+01 -4.4615107614279950e+01
 -5.2183061434892267e+01 -5.2183061441067601e+01 -5.2183061455949939e+01 -5.2184474128505393e+01 -5.2184474134645299e+01 -5.2184474149442018e+01 -5.2183061470748932e+01 -5.2183061476818985e+01 -5.2184474164155382e+01 -5.2184474170190242e+01
 -4.4617599944214298e+01 -4.4617600014925273e+01 -4.4617600185631012e+01 -4.4620606635004407e+01 -4.4620606705478480e+01 -4.4620606875612189e+01 -4.4617600356279894e+01 -4.4617600426905753e+01 -4.4620607045689120e+01 -4.4620607116078425e+01
 -3.6981000532587579e+01 -3.6982156396201134e+01 -3.6981001330703862e+01 -3.6982157194506371e+01 -3.6981003258334944e+01 -3.6982159122598809e+01 -3.6985502383810740e+01 -3.6985503182663770e+01 -3.6985505112079821e+01 -3.6981005187073329e+01
 -3.6982161051802329e+01 -3.6981005986258822e+01 -3.6982161851182966e+01 -3.6985507042607971e+01 -3.6985507842537885e+01 -2.9280416489131866e+01 -2.9282644438889559e+01 -2.9280425480752363e+01 -2.9282653432795954e+01 -2.9280447217028133e+01
 -2.9282675174585577e+01 -2.9289182697909226e+01 -2.9289191699899874e+01 -2.9289213461204195e+01 -2.9280468994439001e+01 -2.9282696957494263e+01 -2.9280478027172673e+01 -2.9282705992499576e+01 -2.9289235263617407e+01 -2.9289244306697068e+01
 -3.6990667373005408e+01 -3.6990668172294157e+01 -3.6990670102763580e+01 -3.6997020484009674e+01 -3.6997021281775638e+01 -3.6997023208570035e+01 -3.6990672034347291e+01 -3.6990672834715305e+01 -3.6997025136480772e+01 -3.6997025935328423e+01
 -2.9299543368794673e+01 -2.9299552383124194e+01 -2.9299574174263718e+01 -2.9312759801600770e+01 -2.9312768814078382e+01 -2.9312790600829597e+01 -2.9299596006577143e+01 -2.9299605062060866e+01 -2.9312812428873162e+01 -2.9312821482623747e+01
 -2.1502307683684499e+01 -2.1506190007965550e+01 -2.1502408667972762e+01 -2.1506291013359718e+01 -2.1502653425854994e+01 -2.1506535821893628e+01 -2.1517871869467061e+01 -2.1517972972479029e+01 -2.1518218016495240e+01 -2.1502899584690169e+01
 -2.1506782030522295e+01 -2.1503001971465736e+01 -2.1506884437539089e+01 -2.1518464459955556e+01 -2.1518566963930517e+01 -1.7578938839217216e+01 -1.7580210028743807e+01 -1.7579429359150904e+01 -1.7583576499831906e+01 -1.7584067059350225e+01
 -1.7580697145064672e+01 -1.7580626152728929e+01 -1.7585263946592807e+01 -1.7581885489309077e+01 -1.3626622937307472e+01 -1.3628629286711972e+01 -1.3627867878684675e+01 -1.3629873999336699e+01 -1.3631637518300870e+01 -1.3633643734595497e+01
 -1.3633595943533258e+01 -1.3634840134242967e+01 -1.3638610116505085e+01 -1.7589579874819474e+01 -1.7597852315654858e+01 -1.7598343268495505e+01 -1.7590067143196968e+01 -1.7599541100574253e+01 -1.7591255848191711e+01 -1.3638129048395751e+01
 -1.3640135304173326e+01 -1.3647582440040459e+01 -1.3649589761461964e+01 -1.3645101734975963e+01 -1.3654558764502406e+01 -1.7581841661778121e+01 -1.7586479532867347e+01 -1.7583092191185845e+01 -1.7582350937474651e+01 -1.7586988831442373e+01
 -1.7583597704205395e+01 -1.3638751056457117e+01 -1.3639994661623611e+01 -1.3643764753226908e+01 -1.3640946596478697e+01 -1.3642189907795490e+01 -1.3645959953277162e+01 -1.7600757616412075e+01 -1.7592462887640966e+01 -1.7601267292787753e+01
 -1.7592968529194408e+01 -1.3650256258510431e+01 -1.3659715823983907e+01 -1.3652451332806912e+01 -1.3661911926217760e+01 -2.1537294427173645e+01 -2.1537395743112107e+01 -2.1537641302819651e+01 -2.1563800134585918e+01 -2.1563901635547996e+01
 -2.1564147645772060e+01 -2.1537888264252530e+01 -2.1537990983431513e+01 -2.1564395063248291e+01 -2.1564497972972195e+01 -1.7608992085852517e+01 -1.7622655332349222e+01 -1.7623147526566839e+01 -1.7609480119924783e+01 -1.7624348376470760e+01
 -1.7610670678893310e+01 -1.3660377110672734e+01 -1.3662386212550542e+01 -1.3676922239972464e+01 -1.3678934786007181e+01 -1.3667359563121515e+01 -1.3683916601129898e+01 -1.7639394344399594e+01 -1.7658771764705939e+01 -1.7659265891784145e+01
 -1.7639884063140371e+01 -1.7660471468506060e+01 -1.7641078727934403e+01 -1.3697743447757087e+01 -1.3699760530160319e+01 -1.3723335803154242e+01 -1.3725358920465094e+01 -1.3704753528674603e+01 -1.3730366868232812e+01 -1.7625567939402107e+01
 -1.7611879576768914e+01 -1.7626078886344303e+01 -1.7612385988341451e+01 -1.3672521032540262e+01 -1.3689086755225134e+01 -1.3674718976902602e+01 -1.3691288363351312e+01 -1.7661695846625012e+01 -1.7642291787765359e+01 -1.7662208814696836e+01
 -1.7642799940065217e+01 -1.3709935210280289e+01 -1.3735564065068267e+01 -1.3712141698209692e+01 -1.3737777152979252e+01 -9.6334433193245932e+00 -9.6345245805190398e+00 -9.6411768938772688e+00 -9.6422573162119942e+00 -9.6379078547688017e+00
 -9.6456390204793845e+00 -9.6610049948434167e+00 -9.6620846535600986e+00 -9.6654633330508144e+00 -5.5545842260303244e+00 -5.5544457920919790e+00 -5.5613078658768575e+00 -5.5547834874581721e+00 -5.5810823610323528e+00 -5.5611754649120702e+00
 -5.5813973830999188e+00 -5.5615039748418083e+00 -5.5812068017112626e+00 -5.5554739578520911e+00 -5.5621886225183284e+00 -5.5564632945547618e+00 -5.5830564431494789e+00 -5.5631774370175835e+00 -5.5820712288738310e+00 -5.6137620696400967e+00
 -5.6567493958516355e+00 -5.6136491096925614e+00 -5.6570754453235379e+00 -5.6139638511944625e+00 -5.6568457781316068e+00 -5.6146224593727529e+00 -5.6587179446627740e+00 -5.6156139586220561e+00 -5.6577113316091729e+00 -9.6439273396641312e+00
 -9.6516578244231948e+00 -9.6530354873597659e+00 -9.6607681631165541e+00 -9.6714802171691368e+00 -9.6805957370035429e+00 -5.5581351297451302e+00 -5.5648456740611341e+00 -5.5602471989553308e+00 -5.5868297374239342e+00 -5.5669589714501839e+00
 -5.5847167684315435e+00 -5.5631651526965973e+00 -5.5698750409205600e+00 -5.5666433289647674e+00 -5.5932282125196835e+00 -5.5733564175490571e+00 -5.5897420816514565e+00 -5.6172564025302361e+00 -5.6624651600864224e+00 -5.6193770996969556e+00
 -5.6603294690014696e+00 -5.6222768512168200e+00 -5.6688683081382196e+00 -5.6257788353341462e+00 -5.6653406121551315e+00 -9.6826965131552303e+00 -9.6837749227933507e+00 -9.6871486774165572e+00 -9.6923066988627760e+00 -9.6933837577450035e+00
 -9.6967539531700204e+00 -5.7060540827805530e+00 -5.7532629923285166e+00 -5.7059871607920565e+00 -5.7536027278053163e+00 -5.7063294742393742e+00 -5.7532843904436177e+00 -5.7069244045930816e+00 -5.7551990158220407e+00 -5.7079585238950825e+00
 -5.7541362786186090e+00 -5.7880935606040556e+00 -5.8012047537394436e+00 -5.7881144868010708e+00 -5.8015243233505496e+00 -5.7884424289981551e+00 -5.8011628204951329e+00 -5.7889183555516892e+00 -5.8030658202464833e+00 -5.7900027909473675e+00
 -5.8019715538620478e+00 -9.6931617972728219e+00 -9.7022819000646887e+00 -9.7027644889471798e+00 -9.7118861622482608e+00 -5.7095191357193018e+00 -5.7588937228407300e+00 -5.7116835841717259e+00 -5.7566944730039928e+00 -5.7145175016356546e+00
 -5.7652949481787203e+00 -5.7180877385437956e+00 -5.7616749537362830e+00 -5.7914418184798775e+00 -5.8067215155800858e+00 -5.7936709301376892e+00 -5.8044782013374281e+00 -5.7964073593414005e+00 -5.8131179747070156e+00 -5.8000697069572231e+00
 -5.8094364818797617e+00 -3.4264687406404022e+00 -3.4361455230566409e+00 -3.4269597192566814e+00 -3.4367368221685766e+00 -3.4257498103565656e+00 -3.4353445928760658e+00 -3.4680126632803367e+00 -3.4673487015393847e+00 -3.4664594432009901e+00
 -1.2214712980745666e+00 -1.2181374485722585e+00 -1.2273202655205193e+00 -1.2220027662029553e+00 -1.2148923691454983e+00 -1.2178739962001923e+00 -1.2550667700225568e+00 -1.2489068369745975e+00 -1.2440318614972548e+00 -3.4253689175508093e+00
 -3.4349230600483982e+00 -3.4255062858427023e+00 -3.4350427213153933e+00 -3.4659831550747158e+00 -3.4660734044379238e+00 -1.2130443388346048e+00 -1.2157555570132867e+00 -1.2122700414009615e+00 -1.2149050718101757e+00 -1.2416124854980843e+00
 -1.2406574832257151e+00 -3.5239947791964532e+00 -3.5246571382456606e+00 -3.5231053952392850e+00 -3.6110701092138680e+00 -3.6104973250248067e+00 -3.6097088907666803e+00 -1.3181767012264172e+00 -1.3119963617281574e+00 -1.3070913643168298e+00
 -1.4429076550090023e+00 -1.4376086662350875e+00 -1.4334420864514283e+00 -3.5226190230257242e+00 -3.5226934203255595e+00 -3.6092588414380287e+00 -3.6093261965030168e+00 -1.3046433527740164e+00 -1.3036562864056387e+00 -1.4312465829379468e+00
 -1.4302810238147250e+00 -6.6641939682565821e-01 -6.6063159868254362e-01 -6.6739114129668720e-01 -6.5283079221696783e-01 -1.1516843221083965e-01 -1.0786953177139194e-01 -1.1150277966387616e-01 -7.7995841015307751e-02 3.6515383728881473e-01
 3.6561448245845207e-01 3.6551518395853277e-01 3.8555248115934243e-01 4.2332205293730407e-01 4.2333993470195219e-01 4.2333971205138188e-01 4.3840251122154322e-01 -6.5704192077822288e-01 -6.4727063311507915e-01 -1.0499128931973471e-01
 -7.2258579218442281e-02 3.6569545909014489e-01 3.8567892175674978e-01 4.2334013109408142e-01 4.3840719525874466e-01 -6.8689217271623415e-01 -6.7038325530306186e-01 -1.2115500025946356e-01 -8.4746594465049854e-02 3.6525438789018405e-01