DF-ISE text

Info {
  version = 1.0
  type    = dataset
  dimension   = 3
  nb_vertices = 5293
  nb_edges    = 23303
  nb_faces    = 30690
  nb_elements = 12980
  nb_regions  = 3
  datasets    = [ "ElectrostaticPotential" "ContactExternalVoltage" "ContactCurrentFlux" "ContactCharge" "eQuasiFermiPotential" "hQuasiFermiPotential" "QuasiFermiPotential" "LatticeTemperature" ]
  functions   = [ ElectrostaticPotential ContactExternalVoltage ContactCurrentFlux ContactCharge eQuasiFermiPotential hQuasiFermiPotential QuasiFermiPotential LatticeTemperature ]
}

Data {

  Dataset ("ElectrostaticPotential") {
    function  = ElectrostaticPotential
    type      = scalar
    dimension = 1
    location  = vertex
    validity  = [ "substrate" ]
    Values (5293) {
 -2.0378889853107928e+01 -2.0370671524060253e+01 -2.0378889853107928e+01 -2.0378889853107928e+01 -2.0370672071855068e+01 -2.0370671661004820e+01 -2.0394599031962663e+01 -2.0386381551615365e+01 -2.0355505115663195e+01 -2.0355506186986357e+01
 -2.0355505383477325e+01 -2.0371218552182139e+01 -2.0323356606150877e+01 -2.0323361119896109e+01 -2.0323357732930464e+01 -2.0339082803241606e+01 -2.0274749604329873e+01 -2.0274798913898646e+01 -2.0274761312973357e+01 -2.0290574413494252e+01
 -2.0210916711038521e+01 -2.0211611620898065e+01 -2.0211058061151199e+01 -2.0225117236051997e+01 -2.0151710442739009e+01 -2.0153608887484644e+01 -2.0152030637759115e+01 -2.0161158009022806e+01 -2.0095754438941764e+01 -2.0098490456461043e+01
 -2.0096156608758406e+01 -2.0102175807943794e+01 -2.0378889853107928e+01 -2.0370671661008398e+01 -2.0394599031962663e+01 -2.0386381688553445e+01 -2.0355505383491508e+01 -2.0371218819761292e+01 -2.0323357733892333e+01 -2.0339083917602519e+01
 -2.0274761637357869e+01 -2.0290585265906607e+01 -2.0211074603754270e+01 -2.0225289751293271e+01 -2.0152104845576609e+01 -2.0161692822785671e+01 -2.0096286245251630e+01 -2.0102900711024361e+01 -1.9651133468322652e+01 -1.9652198202997639e+01
 -1.9651203256168934e+01 -1.9652482674609036e+01 -1.9651237600484638e+01 -1.9652598288695103e+01 -2.0378889853107928e+01 -2.0370672071858653e+01 -2.0394599031962663e+01 -2.0386381585851414e+01 -2.0355506187001193e+01 -2.0371218619082860e+01
 -2.0323361122066636e+01 -2.0339083082228438e+01 -2.0274799777983834e+01 -2.0290577390217070e+01 -2.0211657405240672e+01 -2.0225187489737330e+01 -2.0153834102710462e+01 -2.0161489164550218e+01 -2.0098914885724561e+01 -2.0102755751872845e+01
 -2.0394599031962663e+01 -2.0386381722789881e+01 -2.0371218886663513e+01 -2.0339084196647914e+01 -2.0290588272358999e+01 -2.0225363036047948e+01 -2.0162047727359521e+01 -2.0103528125018222e+01 -1.9652752248796681e+01 -1.9653063479236053e+01
 -1.9653192248670020e+01 -2.0378889853107928e+01 -2.0370671661004430e+01 -2.0394599031962663e+01 -2.0386381536690514e+01 -2.0355505383475741e+01 -2.0371218523016054e+01 -2.0323357732754953e+01 -2.0339082681710003e+01 -2.0274761246077293e+01
 -2.0290573206926094e+01 -2.0211054554970129e+01 -2.0225095999148895e+01 -2.0152013981114266e+01 -2.0161077723159160e+01 -2.0096126086544334e+01 -2.0102051304329127e+01 -2.0378889853107928e+01 -2.0370671509134578e+01 -2.0377177747777051e+01
 -2.0368959921836758e+01 -2.0355505086470977e+01 -2.0353793586289115e+01 -2.0323356483153919e+01 -2.0321647071448897e+01 -2.0274748269830720e+01 -2.0273079754499008e+01 -2.0210898240162162e+01 -2.0210210956928449e+01 -2.0151658685985481e+01
 -2.0152752171609947e+01 -2.0095678358634007e+01 -2.0097977849185455e+01 -1.9651179757959902e+01 -1.9652435934965236e+01 -1.9651096012911793e+01 -1.9652111462999649e+01 -2.0394599031962663e+01 -2.0386381570926485e+01 -2.0371218589916467e+01
 -2.0339082960683871e+01 -2.0290576176772852e+01 -2.0225165556987271e+01 -2.0161403617134781e+01 -2.0102620577431207e+01 -2.0377177747777051e+01 -2.0368959913792395e+01 -2.0353793570562804e+01 -2.0321647007675498e+01 -2.0273080024322681e+01
 -2.0210250344595622e+01 -2.0152957717112066e+01 -2.0098372676069751e+01 -1.9653009732301790e+01 -1.9652653831534835e+01 -1.9188971975705993e+01 -1.9189288116242089e+01 -1.9188980091226632e+01 -1.9189310836320093e+01 -1.9188983577681306e+01
 -1.9189321717662558e+01 -1.8711260492990512e+01 -1.8711360320392522e+01 -1.8711261167788212e+01 -1.8711361997286357e+01 -1.8711260999318661e+01 -1.8711362352075891e+01 -1.9189587420464633e+01 -1.9189613152634017e+01 -1.9189625582327619e+01
 -1.8711500019145586e+01 -1.8711501969340464e+01 -1.8711502401401951e+01 -1.9188971937063240e+01 -1.9189298670529929e+01 -1.9188960058446522e+01 -1.9189269635030090e+01 -1.8711258818022756e+01 -1.8711358996244432e+01 -1.8711257138953140e+01
 -1.8711355996814291e+01 -1.9189598984213760e+01 -1.9189565955005005e+01 -1.8711498497403223e+01 -1.8711495018124833e+01 -2.0378889853107928e+01 -2.0370672071858653e+01 -2.0394599031962663e+01 -2.0386381585851485e+01 -2.0355506187001346e+01
 -2.0371218619083162e+01 -2.0323361122348203e+01 -2.0339083082283036e+01 -2.0274799903708487e+01 -2.0290577434518859e+01 -2.0211664214231988e+01 -2.0225192163263422e+01 -2.0153869244852867e+01 -2.0161524675489499e+01 -2.0098984626548479e+01
 -2.0102830410793374e+01 -2.0394599031962663e+01 -2.0386381722789960e+01 -2.0371218886663812e+01 -2.0339084196703283e+01 -2.0290588317367138e+01 -2.0225367791963428e+01 -2.0162084207345199e+01 -2.0103605145614903e+01 -1.9652965893607259e+01
 -1.9653279433399369e+01 -1.9653409394070739e+01 -2.0378889853107928e+01 -2.0370672071858653e+01 -2.0394599031962663e+01 -2.0386381585851485e+01 -2.0355506187001367e+01 -2.0371218619083162e+01 -2.0323361122392644e+01 -2.0339083082290092e+01
 -2.0274799923554788e+01 -2.0290577440806686e+01 -2.0211665289808302e+01 -2.0225192832532908e+01 -2.0153874838064024e+01 -2.0161529856493015e+01 -2.0098995941996222e+01 -2.0102841622541600e+01 -2.0394599031962663e+01 -2.0386381722789960e+01
 -2.0371218886663815e+01 -2.0339084196710235e+01 -2.0290588323564680e+01 -2.0225368452732926e+01 -2.0162089373994473e+01 -2.0103616386116293e+01 -1.9653014976691384e+01 -1.9653328660882792e+01 -1.9653458672839736e+01 -2.0394599031962663e+01
 -2.0386381570926556e+01 -2.0371218589916769e+01 -2.0339082960737951e+01 -2.0290576220611925e+01 -2.0225170180260903e+01 -2.0161438705130646e+01 -2.0102694306445585e+01 -2.0377177747777051e+01 -2.0368959913792356e+01 -2.0353793570562853e+01
 -2.0321647008003758e+01 -2.0273080161305700e+01 -2.0210257252241121e+01 -2.0152992146167811e+01 -2.0098440634111459e+01 -1.9653224222919111e+01 -1.9652865278704823e+01 -2.0394599031962663e+01 -2.0386381570926556e+01 -2.0371218589916769e+01
 -2.0339082960744975e+01 -2.0290576226873270e+01 -2.0225170846531810e+01 -2.0161443856699965e+01 -2.0102705447212912e+01 -2.0377177747777051e+01 -2.0368959913792356e+01 -2.0353793570562882e+01 -2.0321647008057173e+01 -2.0273080183430153e+01
 -2.0210258367099421e+01 -2.0152997732093933e+01 -2.0098451854696645e+01 -1.9653273220376054e+01 -1.9652914029799852e+01 -1.9189750655648705e+01 -1.9189776751192458e+01 -1.9189789289151637e+01 -1.8711594582269417e+01 -1.8711596565130790e+01
 -1.8711596968855964e+01 -1.9189793177566013e+01 -1.9189819299927493e+01 -1.9189831824439242e+01 -1.8711620701769782e+01 -1.8711622685002432e+01 -1.8711623075754950e+01 -1.9189761978009304e+01 -1.9189728318909971e+01 -1.8711592908014925e+01
 -1.8711589317792129e+01 -1.9189804406062969e+01 -1.9189770668928968e+01 -1.8711618984211015e+01 -1.8711615375374517e+01 -1.8218491128198860e+01 -1.8218526409229437e+01 -1.8218491129838178e+01 -1.8218526475625620e+01 -1.8218490938899553e+01
 -1.8218526304660411e+01 -1.7710798317794456e+01 -1.7710811463599512e+01 -1.7710798300514284e+01 -1.7710811448330492e+01 -1.7710798243362547e+01 -1.7710811388639367e+01 -1.8218589323192358e+01 -1.8218589406464943e+01 -1.8218589218953063e+01
 -1.7710839066723175e+01 -1.7710839050643571e+01 -1.7710838984926255e+01 -1.8218490506530447e+01 -1.8218525746406055e+01 -1.8218490244384757e+01 -1.8218525372985059e+01 -1.7710798165882053e+01 -1.7710811299732931e+01 -1.7710798127275936e+01
 -1.7710811253228808e+01 -1.8218588575351408e+01 -1.8218588142037145e+01 -1.7710838884746693e+01 -1.7710838831848466e+01 -1.6650775494200182e+01 -1.6650779824345580e+01 -1.6650775491789467e+01 -1.6650779821877901e+01 -1.6650775485485145e+01
 -1.6650779815272813e+01 -1.6650790531546125e+01 -1.6650790528900242e+01 -1.6650790521751865e+01 -1.6650775478520067e+01 -1.6650779807796226e+01 -1.6650775475431889e+01 -1.6650779804427039e+01 -1.6650790513579935e+01 -1.6650790509875183e+01
 -1.8218638261226975e+01 -1.8218638343462246e+01 -1.8218638140052914e+01 -1.7710863225161368e+01 -1.7710863207825064e+01 -1.7710863137903633e+01 -1.8218652386423859e+01 -1.8218652467365263e+01 -1.8218652258768369e+01 -1.7710871378732836e+01
 -1.7710871360912812e+01 -1.7710871289614051e+01 -1.8218637463364502e+01 -1.8218637010661208e+01 -1.7710863031952151e+01 -1.7710862976170546e+01 -1.8218651574144506e+01 -1.8218651117283841e+01 -1.7710871181998787e+01 -1.7710871125440196e+01
 -1.6650802842287494e+01 -1.6650802839493746e+01 -1.6650802831949601e+01 -1.6650812254705240e+01 -1.6650812251844901e+01 -1.6650812244131956e+01 -1.6650802823328611e+01 -1.6650802819421614e+01 -1.6650812235330985e+01 -1.6650812231346077e+01
 -1.5531306213308094e+01 -1.5531310862750084e+01 -1.5531306212893110e+01 -1.5531310862327230e+01 -1.5531306211871009e+01 -1.5531310861282600e+01 -1.5531323774135435e+01 -1.5531323773696213e+01 -1.5531323772609063e+01 -1.5531306210820086e+01
 -1.5531310860204369e+01 -1.5531306210375931e+01 -1.5531310859747427e+01 -1.5531323771484155e+01 -1.5531323771006619e+01 -1.4352387588527758e+01 -1.4352396705419309e+01 -1.4352387588294890e+01 -1.4352396705185802e+01 -1.4352387587723653e+01
 -1.4352396704613053e+01 -1.4352422610433882e+01 -1.4352422610199008e+01 -1.4352422609622947e+01 -1.4352387587138551e+01 -1.4352396704026454e+01 -1.4352387586891593e+01 -1.4352396703778897e+01 -1.4352422609033036e+01 -1.4352422608784108e+01
 -1.5531342250309917e+01 -1.5531342249854905e+01 -1.5531342248728425e+01 -1.5531362798171003e+01 -1.5531362797695504e+01 -1.5531362796519071e+01 -1.5531342247562490e+01 -1.5531342247067457e+01 -1.5531362795302494e+01 -1.5531362794786274e+01
 -1.4352461225772910e+01 -1.4352461225534402e+01 -1.4352461224949561e+01 -1.4352506543258297e+01 -1.4352506543003908e+01 -1.4352506542380484e+01 -1.4352461224350865e+01 -1.4352461224098301e+01 -1.4352506541742837e+01 -1.4352506541474023e+01
 -1.3113983629939655e+01 -1.3114002997034991e+01 -1.3113983629715907e+01 -1.3114002996811216e+01 -1.3113983629162590e+01 -1.3114002996257886e+01 -1.3114058207183749e+01 -1.3114058206959930e+01 -1.3114058206406561e+01 -1.3113983628588670e+01
 -1.3114002995684034e+01 -1.3113983628343831e+01 -1.3114002995439256e+01 -1.3114058205832773e+01 -1.3114058205588057e+01 -1.1816012111492507e+01 -1.1816053293394738e+01 -1.1816012111410283e+01 -1.1816053293312615e+01 -1.1816012111192306e+01
 -1.1816053293094896e+01 -1.1816170869505680e+01 -1.1816170869423891e+01 -1.1816170869207051e+01 -1.1816012110943079e+01 -1.1816053292845977e+01 -1.1816012110828584e+01 -1.1816053292731635e+01 -1.1816170868959132e+01 -1.1816170868845250e+01
 -1.3114140995238142e+01 -1.3114140995012058e+01 -1.3114140994453276e+01 -1.3114238900542560e+01 -1.3114238900301553e+01 -1.3114238899706493e+01 -1.3114140993874164e+01 -1.3114140993627275e+01 -1.3114238899090719e+01 -1.3114238898828527e+01
 -1.1816347673621216e+01 -1.1816347673537718e+01 -1.1816347673316855e+01 -1.1816557543827964e+01 -1.1816557543730035e+01 -1.1816557543474095e+01 -1.1816347673065071e+01 -1.1816347672949643e+01 -1.1816557543186871e+01 -1.1816557543056655e+01
 -2.0378889853107928e+01 -2.0370672071858650e+01 -2.0394599031962663e+01 -2.0386381585851485e+01 -2.0355506187001332e+01 -2.0371218619083159e+01 -2.0323361122330482e+01 -2.0339083082280304e+01 -2.0274799895797742e+01 -2.0290577432085694e+01
 -2.0211663785373723e+01 -2.0225191904225653e+01 -2.0153867006871714e+01 -2.0161522663750461e+01 -2.0098980053270264e+01 -2.0102826006910330e+01 -2.0394599031962663e+01 -2.0386381722789956e+01 -2.0371218886663812e+01 -2.0339084196700632e+01
 -2.0290588315005845e+01 -2.0225367540140518e+01 -2.0162082231266794e+01 -2.0103600792837078e+01 -1.9652942672733946e+01 -1.9653256229716000e+01 -1.9653386198243876e+01 -2.0378889853107928e+01 -2.0370672071858618e+01 -2.0394599031962663e+01
 -2.0386381585851399e+01 -2.0355506187001026e+01 -2.0371218619082825e+01 -2.0323361121994918e+01 -2.0339083082217307e+01 -2.0274799746920849e+01 -2.0290577380778746e+01 -2.0211655731750280e+01 -2.0225186489795160e+01 -2.0153825518446258e+01
 -2.0161481496385274e+01 -2.0098897796799786e+01 -2.0102739371791166e+01 -2.0394599031962663e+01 -2.0386381722789874e+01 -2.0371218886663478e+01 -2.0339084196637113e+01 -2.0290588263212637e+01 -2.0225362065456764e+01 -2.0162040206423701e+01
 -2.0103511959719032e+01 -1.9652689846744192e+01 -1.9653001149929043e+01 -1.9653129953543459e+01 -2.0394599031962663e+01 -2.0386381570926556e+01 -2.0371218589916765e+01 -2.0339082960735205e+01 -2.0290576218165604e+01 -2.0225169919898526e+01
 -2.0161436685801085e+01 -2.0102689890096610e+01 -2.0377177747777051e+01 -2.0368959913792356e+01 -2.0353793570562839e+01 -2.0321647007982115e+01 -2.0273080152342231e+01 -2.0210256800439126e+01 -2.0152989875048675e+01 -2.0098436028721682e+01
 -1.9653201012128410e+01 -1.9652842046688683e+01 -2.0394599031962663e+01 -2.0386381570926471e+01 -2.0371218589916431e+01 -2.0339082960672677e+01 -2.0290576167281049e+01 -2.0225164551656043e+01 -2.0161395917872699e+01 -2.0102604145904593e+01
 -2.0377177747777051e+01 -2.0368959913792356e+01 -2.0353793570562605e+01 -2.0321647007587867e+01 -2.0273079989069128e+01 -2.0210248579066853e+01 -2.0152948997264971e+01 -2.0098355453109683e+01 -1.9652947377910952e+01 -1.9652591389298983e+01
 -1.9189724613920365e+01 -1.9189750711024594e+01 -1.9189763249288486e+01 -1.8711573967470557e+01 -1.8711575950356828e+01 -1.8711576353767210e+01 -1.9189527080559962e+01 -1.9189552819355374e+01 -1.9189565251282961e+01 -1.8711456178936761e+01
 -1.8711458129403354e+01 -1.8711458560742205e+01 -1.9189735935112211e+01 -1.9189702273240290e+01 -1.8711572292178190e+01 -1.8711568701484243e+01 -1.9189538642574814e+01 -1.9189505602933536e+01 -1.8711454654471549e+01 -1.8711451173656727e+01
 -2.0378889853107928e+01 -2.0370672064391847e+01 -2.0394599031962663e+01 -2.0386381547883868e+01 -2.0355506172388623e+01 -2.0371218544889519e+01 -2.0323361058105899e+01 -2.0339082772791720e+01 -2.0274798127625754e+01 -2.0290574068910431e+01
 -2.0211596035610444e+01 -2.0225107541756181e+01 -2.0153550885713138e+01 -2.0161106058426519e+01 -2.0098390480945451e+01 -2.0102079616795304e+01 -2.0394599031962663e+01 -2.0386381684822002e+01 -2.0371218812468879e+01 -2.0339083887158893e+01
 -2.0290584923615047e+01 -2.0225280256424632e+01 -2.0161641668386185e+01 -2.0102805545583408e+01 -1.9652048673649389e+01 -1.9652333440139497e+01 -1.9652449186409417e+01 -2.0377177747777065e+01 -2.0368959274709901e+01 -2.0377177747777065e+01
 -2.0368959422401872e+01 -2.0353792320521762e+01 -2.0353792609392446e+01 -2.0321641728318191e+01 -2.0321642945719823e+01 -2.0273020792764456e+01 -2.0273033527692530e+01 -2.0209407154880338e+01 -2.0209555424312175e+01 -2.0150605734676976e+01
 -2.0150931846863259e+01 -2.0094893157372912e+01 -2.0095299058192097e+01 -2.0377177747777065e+01 -2.0368959422405936e+01 -2.0353792609408622e+01 -2.0321642946881738e+01 -2.0273033898137005e+01 -2.0209572987787201e+01 -2.0151007518467672e+01
 -2.0095430058959536e+01 -1.9650804509420695e+01 -1.9650874607446092e+01 -1.9650909106383427e+01 -2.0394599031962663e+01 -2.0386381532959010e+01 -2.0371218515723402e+01 -2.0339082651259194e+01 -2.0290572861979488e+01 -2.0225086272846912e+01
 -2.0161025621571227e+01 -2.0101954889066015e+01 -2.0377177747777051e+01 -2.0368959913787844e+01 -2.0353793570543683e+01 -2.0321647004646600e+01 -2.0273078893760211e+01 -2.0210194613730724e+01 -2.0152693342350048e+01 -2.0097877220606225e+01
 -1.9652286628785316e+01 -1.9651961811799413e+01 -2.0377177747777065e+01 -2.0368959422401428e+01 -2.0353792609390627e+01 -2.0321642945505747e+01 -2.0273033451129297e+01 -2.0209551694148573e+01 -2.0150914826446424e+01 -2.0095268146882592e+01
 -2.0377177747777065e+01 -2.0368959258612833e+01 -2.0353792289034210e+01 -2.0321641595406156e+01 -2.0273019337523738e+01 -2.0209387715906537e+01 -2.0150552949316392e+01 -2.0094816236995168e+01 -1.9650851008513300e+01 -1.9650766892768040e+01
 -1.9189178998567336e+01 -1.9189201741510196e+01 -1.9189212632659238e+01 -1.8711291505651666e+01 -1.8711293183730650e+01 -1.8711293537535397e+01 -1.9188814028572590e+01 -1.9188822168956701e+01 -1.9188825665948311e+01 -1.8711175730222600e+01
 -1.8711176406215287e+01 -1.8711176236261526e+01 -1.9189189556668410e+01 -1.9189160489162248e+01 -1.8711290176630470e+01 -1.8711287173428673e+01 -1.9188813989775173e+01 -1.9188802074721302e+01 -1.8711174048619753e+01 -1.8711172365033768e+01
 -1.8218625687283094e+01 -1.8218625769434222e+01 -1.8218625565779821e+01 -1.7710859131363108e+01 -1.7710859113948093e+01 -1.7710859043832293e+01 -1.8218563739916871e+01 -1.8218563822965336e+01 -1.8218563634769261e+01 -1.7710830685369647e+01
 -1.7710830669052900e+01 -1.7710830602748157e+01 -1.8218624888792970e+01 -1.8218624435948229e+01 -1.7710858937680520e+01 -1.7710858881814097e+01 -1.8218562990304427e+01 -1.8218562556571541e+01 -1.7710830501960778e+01 -1.7710830448804337e+01
 -1.6650816300841068e+01 -1.6650816297971915e+01 -1.6650816290244325e+01 -1.6650815264696021e+01 -1.6650815261808209e+01 -1.6650815254069379e+01 -1.6650816281437855e+01 -1.6650816277453398e+01 -1.6650815245297512e+01 -1.6650815241341277e+01
 -1.8218488883074361e+01 -1.8218488949054841e+01 -1.8218488776733192e+01 -1.7710799235401829e+01 -1.7710799219625340e+01 -1.7710799158672653e+01 -1.8218447673919314e+01 -1.8218447674967248e+01 -1.8218447482185827e+01 -1.7710784349547200e+01
 -1.7710784331558436e+01 -1.7710784272646304e+01 -1.8218488216694251e+01 -1.8218487842382707e+01 -1.7710799068454836e+01 -1.7710799021391509e+01 -1.8218447047457939e+01 -1.8218446784157464e+01 -1.7710784193335964e+01 -1.7710784153949668e+01
 -1.6650811943775864e+01 -1.6650811940759599e+01 -1.6650811932810210e+01 -1.6650810159882560e+01 -1.6650810156682997e+01 -1.6650810148439565e+01 -1.6650811923959434e+01 -1.6650811920011463e+01 -1.6650810139482857e+01 -1.6650810135552650e+01
 -1.5531382009887796e+01 -1.5531382009355529e+01 -1.5531382008040785e+01 -1.5531397215457446e+01 -1.5531397214757838e+01 -1.5531397213033177e+01 -1.5531382006683996e+01 -1.5531382006109094e+01 -1.5531397211257364e+01 -1.5531397210505913e+01
 -1.4352551608933299e+01 -1.4352551608615931e+01 -1.4352551607838436e+01 -1.4352589609877834e+01 -1.4352589609364221e+01 -1.4352589608102635e+01 -1.4352551607043658e+01 -1.4352551606708776e+01 -1.4352589606807918e+01 -1.4352589606260706e+01
 -1.5531406782507531e+01 -1.5531406781463625e+01 -1.5531406778889547e+01 -1.5531410017686534e+01 -1.5531410016348620e+01 -1.5531410013043004e+01 -1.5531406776235809e+01 -1.5531406775111117e+01 -1.5531410009622874e+01 -1.5531410008168637e+01
 -1.4352614889328640e+01 -1.4352614888395804e+01 -1.4352614886088887e+01 -1.4352623742175128e+01 -1.4352623740866454e+01 -1.4352623737609516e+01 -1.4352614883696598e+01 -1.4352614882676813e+01 -1.4352623734198602e+01 -1.4352623732732416e+01
 -1.3114337079343594e+01 -1.3114337079037952e+01 -1.3114337078284251e+01 -1.3114420525423244e+01 -1.3114420524904569e+01 -1.3114420523622066e+01 -1.3114337077505843e+01 -1.3114337077174978e+01 -1.3114420522292136e+01 -1.3114420521725069e+01
 -1.1816768867254453e+01 -1.1816768867090442e+01 -1.1816768866671763e+01 -1.1816949179280574e+01 -1.1816949178888061e+01 -1.1816949177898055e+01 -1.1816768866216806e+01 -1.1816768866015444e+01 -1.1816949176840234e+01 -1.1816949176378001e+01
 -1.3114476388823183e+01 -1.3114476387820343e+01 -1.3114476385318140e+01 -1.3114496023610341e+01 -1.3114496022143383e+01 -1.3114496018450357e+01 -1.3114476382686668e+01 -1.3114476381551224e+01 -1.3114496014511509e+01 -1.3114496012790903e+01
 -1.1817070260954891e+01 -1.1817070260010652e+01 -1.1817070257613167e+01 -1.1817112892543205e+01 -1.1817112891033243e+01 -1.1817112887156838e+01 -1.1817070255022607e+01 -1.1817070253878491e+01 -1.1817112882893035e+01 -1.1817112880978778e+01
 -1.0458298303654482e+01 -1.0458385178759636e+01 -1.0458298305409745e+01 -1.0458385180515926e+01 -1.0458298309619391e+01 -1.0458385184728028e+01 -1.0458633785846372e+01 -1.0458633787605367e+01 -1.0458633791824081e+01 -1.0458298313782851e+01
 -1.0458385188893978e+01 -1.0458298315489852e+01 -1.0458385190602034e+01 -1.0458633795996793e+01 -1.0458633797707719e+01 -9.0404764107380089e+00 -9.0406570519091680e+00 -9.0404764334777692e+00 -9.0406570746623487e+00 -9.0404764883456608e+00
 -9.0406571295625842e+00 -9.0411761724163373e+00 -9.0411761952048710e+00 -9.0411762501905653e+00 -9.0404765431584284e+00 -9.0406571844077135e+00 -9.0404765658389383e+00 -9.0406572071016704e+00 -9.0411763051213949e+00 -9.0411763278509518e+00
 -1.0459009254327821e+01 -1.0459009256087208e+01 -1.0459009260307040e+01 -1.0459457542770702e+01 -1.0459457544513835e+01 -1.0459457548694253e+01 -1.0459009264481130e+01 -1.0459009266192723e+01 -1.0459457552828660e+01 -1.0459457554523741e+01
 -9.0419664715395776e+00 -9.0419664943630078e+00 -9.0419665494332300e+00 -9.0429202837889999e+00 -9.0429203065869821e+00 -9.0429203615957263e+00 -9.0419666044490263e+00 -9.0419666272139416e+00 -9.0429204165499630e+00 -9.0429204392893929e+00
 -7.5617954548110209e+00 -7.5621610735910822e+00 -7.5617957143568715e+00 -7.5621613333088709e+00 -7.5617963412108402e+00 -7.5621619605781332e+00 -7.5632199094308756e+00 -7.5632201696255645e+00 -7.5632207980469293e+00 -7.5617969684106621e+00
 -7.5621625881937105e+00 -7.5617972282945214e+00 -7.5621628482499750e+00 -7.5632214268158089e+00 -7.5632216873501896e+00 -6.0207678710425521e+00 -6.0214705438450578e+00 -6.0207707968451105e+00 -6.0214734717407516e+00 -6.0207778707246113e+00
 -6.0214805506873583e+00 -6.0235341269658704e+00 -6.0235370609383452e+00 -6.0235441545792163e+00 -6.0207849595452227e+00 -6.0214876445935346e+00 -6.0207879002865559e+00 -6.0214905874464790e+00 -6.0235512632119139e+00 -6.0235542121739298e+00
 -7.5648557005653023e+00 -7.5648559613640041e+00 -7.5648565912447516e+00 -7.5668700984200905e+00 -7.5668703593910847e+00 -7.5668709896885122e+00 -7.5648572214747114e+00 -7.5648574826148511e+00 -7.5668716203361646e+00 -7.5668718816497034e+00
 -6.0268087855930865e+00 -6.0268117285884770e+00 -6.0268188440408199e+00 -6.0309947409602866e+00 -6.0309976907009437e+00 -6.0310048224696695e+00 -6.0268259745246064e+00 -6.0268289325492335e+00 -6.0310119693145756e+00 -6.0310149341293693e+00
 -4.4146117511434033e+00 -4.4158291520112281e+00 -4.4146445850975669e+00 -4.4158620101832913e+00 -4.4147242027651332e+00 -4.4159416868977441e+00 -4.4194966273321930e+00 -4.4195295578970395e+00 -4.4196094102246919e+00 -4.4148043321745245e+00
 -4.4160218760778038e+00 -4.4148376787001808e+00 -4.4160552475459767e+00 -4.4196897761271137e+00 -4.4197232210974740e+00 -3.5857680646988328e+00 -3.5862001054256938e+00 -3.5859272675291334e+00 -3.5872137805056790e+00 -3.5873731007962069e+00
 -3.5863582362254682e+00 -3.5863161792343359e+00 -3.5877623080561931e+00 -3.5867444797769079e+00 -2.7373409900817602e+00 -2.7379899256407967e+00 -2.7377273307126968e+00 -2.7383763332617792e+00 -2.7388898494665215e+00 -2.7395392531763019e+00
 -2.7396009918386994e+00 -2.7399876254368825e+00 -2.7411516216072211e+00 -3.5891225949344281e+00 -3.5916702175220951e+00 -3.5918298811647635e+00 -3.5892809531169054e+00 -3.5922199290110917e+00 -3.5896677596039788e+00 -2.7408992435774482e+00
 -2.7415491350477068e+00 -2.7438240308039559e+00 -2.7444747453468508e+00 -2.7431627498057156e+00 -2.7460903984906588e+00 -3.5867119214455454e+00 -3.5881583595504809e+00 -3.5871374295293004e+00 -3.5868779764965879e+00 -3.5883245458264170e+00
 -3.5873022876393699e+00 -2.7412807607339125e+00 -2.7416676834542164e+00 -2.7428328721752737e+00 -2.7419987946164075e+00 -2.7423858478890484e+00 -2.7435515545032017e+00 -3.5926168358320827e+00 -3.5900612889936916e+00 -3.5927833802019626e+00
 -3.5902263912106491e+00 -2.7448453245005213e+00 -2.7477750773658767e+00 -2.7455645724066771e+00 -2.7484952140927117e+00 -4.4256089802934611e+00 -4.4256420332838813e+00 -4.4257221821215103e+00 -4.4339811609162867e+00 -4.4340143514332659e+00
 -4.4340948336997270e+00 -4.4258028458575724e+00 -4.4258364145769962e+00 -4.4341758328506442e+00 -4.4342095410822173e+00 -3.5951900970901978e+00 -3.5994354496603380e+00 -3.5995957547318196e+00 -3.5953489299332051e+00 -3.5999873627300394e+00
 -3.5957368923611321e+00 -2.7477936397615705e+00 -2.7484453804729947e+00 -2.7529334372460124e+00 -2.7535867451649927e+00 -2.7500635538820393e+00 -2.7552087664566662e+00 -3.6047289525799409e+00 -3.6107971785288449e+00 -3.6109584454834667e+00
 -3.6048885995171194e+00 -3.6113523975028978e+00 -3.6052785427616798e+00 -2.7594251641267196e+00 -2.7600804637769700e+00 -2.7674302167128531e+00 -2.7680881613855681e+00 -2.7617073797560283e+00 -2.7697215985517856e+00 -3.6003858458781428e+00
 -3.5961315911431582e+00 -3.6005530478439942e+00 -3.5962971814659652e+00 -2.7517508112189937e+00 -2.7568999624938062e+00 -2.7524720322174527e+00 -2.7576228414568189e+00 -3.6117532555530447e+00 -3.6056752441181907e+00 -3.6119214502738179e+00
 -3.6058416702846778e+00 -2.7634035923232982e+00 -2.7714245248992859e+00 -2.7641285847616737e+00 -2.7721523549023206e+00 -1.8657782490033019e+00 -1.8661043660119403e+00 -1.8682593437755812e+00 -1.8685857659966616e+00 -1.8671297302490515e+00
 -1.8696122422504333e+00 -1.8746644702491011e+00 -1.8749928026541971e+00 -1.8760234237498647e+00 -9.5698110716122720e-01 -9.5694832774459260e-01 -9.5907771000459896e-01 -9.5701064113145773e-01 -9.6528239839721630e-01 -9.5904756880737263e-01
 -9.6533472153183053e-01 -9.5910547809970170e-01 -9.6530966272305307e-01 -9.5719398280934609e-01 -9.5928710805359774e-01 -9.5746253414294125e-01 -9.6578347207264570e-01 -9.5955588117315294e-01 -9.6551431068382376e-01 -9.7561750674587910e-01
 -9.8941102023854199e-01 -9.7559314013365028e-01 -9.8947684517584711e-01 -9.7564740087470792e-01 -9.8943286076471537e-01 -9.7582607111201536e-01 -9.8994427395015816e-01 -9.7610136501396305e-01 -9.8965634791372015e-01 -1.8689617307765107e+00
 -1.8714460533722392e+00 -1.8717393836617515e+00 -1.8742262991359306e+00 -1.8778623634128042e+00 -1.8806492833777460e+00 -9.5794809865846864e-01 -9.6004120121873227e-01 -9.5856015246473936e-01 -9.6688463233077460e-01 -9.6065435913881969e-01
 -9.6626938499259685e-01 -9.5942255679985211e-01 -9.6151710019514414e-01 -9.6044341647112674e-01 -9.6877493656262048e-01 -9.6253957478648100e-01 -9.6774921496711430e-01 -9.7658706527936023e-01 -9.9106192107638791e-01 -9.7720907616514963e-01
 -9.9042853636972361e-01 -9.7807440481310604e-01 -9.9297261330571229e-01 -9.7910838439716019e-01 -9.9192592637668453e-01 -1.8817477076116422e+00 -1.8820789968524565e+00 -1.8831151525384020e+00 -1.8849140105498470e+00 -1.8852466630317528e+00
 -1.8862853294736537e+00 -1.0054637096402110e+00 -1.0210836592230941e+00 -1.0054460317907925e+00 -1.0211891567841023e+00 -1.0055333390740064e+00 -1.0210919176574844e+00 -1.0057119943511046e+00 -1.0216952685239076e+00 -1.0060210330802519e+00
 -1.0213622449271822e+00 -1.0327775484378310e+00 -1.0372081872888936e+00 -1.0327791922456186e+00 -1.0373305868853933e+00 -1.0328973494093165e+00 -1.0372012261520949e+00 -1.0330634763644768e+00 -1.0378538574933298e+00 -1.0334164909877672e+00
 -1.0374922348442206e+00 -1.8849600140359382e+00 -1.8877541126309982e+00 -1.8881327943846695e+00 -1.8909299887560500e+00 -1.0064993975581424e+00 -1.0228362908382398e+00 -1.0071510264510322e+00 -1.0221634612045767e+00 -1.0080085375034273e+00
 -1.0247713320114620e+00 -1.0090747030250828e+00 -1.0236829595382779e+00 -1.0338744623314786e+00 -1.0390052076777636e+00 -1.0345653685016425e+00 -1.0383062857852203e+00 -1.0354014099744122e+00 -1.0409511902348094e+00 -1.0365086761902793e+00
 -1.0398356218449272e+00 -4.7115099211381162e-01 -4.7390897112968328e-01 -4.7137906156916065e-01 -4.7419309158957507e-01 -4.7083282895044060e-01 -4.7355073878538073e-01 -4.8344122142314344e-01 -4.8311551310902756e-01 -4.8271134217732492e-01
 3.8591256845348081e-02 4.0095947957083627e-02 3.7838189023466161e-02 4.0470939888597221e-02 4.1320187207244279e-02 4.2096226886536463e-02 3.1275586985812419e-02 3.4365784823724363e-02 3.6345039686120351e-02 -4.7064430517999756e-01
 -4.7334452751544331e-01 -4.7063663272248707e-01 -4.7333041276294535e-01 -4.8248051155029975e-01 -4.8245670590485379e-01 4.1943924109168765e-02 4.2822853713716649e-02 4.2191986831669963e-02 4.3095512495145177e-02 3.7198572294176405e-02
 3.7509521410486475e-02 -5.0029396274333926e-01 -5.0063133370883883e-01 -4.9987851385370752e-01 -5.2764936221143965e-01 -5.2734610284277872e-01 -5.2697340077642663e-01 1.4656538647424987e-02 1.7925400188839091e-02 2.0032142059398884e-02
 -2.1079352074712079e-02 -1.7993130558406827e-02 -1.6049856774429178e-02 -4.9964244973984023e-01 -4.9961819415001107e-01 -5.2676343561420080e-01 -5.2675352143328180e-01 2.0937965230427357e-02 2.1267233179720117e-02 -1.5198622803522648e-02
 -1.4881875396725738e-02 1.6575351062854984e-01 1.6822475181440086e-01 1.6679455747415137e-01 1.7431473467193542e-01 2.8992258434208001e-01 2.9241514641123628e-01 2.9197328348579121e-01 3.0908419980684826e-01 3.7434945100386885e-01
 3.7453442801074760e-01 3.7452615884786300e-01 3.8969697424434296e-01 4.2334267211972970e-01 4.2335990480631092e-01 4.2335988628152538e-01 4.3840730969806202e-01 1.6937528231699570e-01 1.7621958769477325e-01 2.9296305276836160e-01
 3.1024882941865323e-01 3.7454578562566448e-01 3.8974653335139048e-01 4.2335994494861734e-01 4.3841189942897657e-01 1.6297961176243833e-01 1.7145348083390632e-01 2.9100613958399818e-01 3.0920906617960209e-01 3.7450927133078832e-01