DF-ISE text

Info {
  version = 1.0
  type    = dataset
  dimension   = 3
  nb_vertices = 5293
  nb_edges    = 23303
  nb_faces    = 30690
  nb_elements = 12980
  nb_regions  = 3
  datasets    = [ "ElectrostaticPotential" "eDensity" "hDensity" "LatticeTemperature" "ElectricField-Vector" ]
  functions   = [ ElectrostaticPotential eDensity hDensity LatticeTemperature ElectricField ]
}

Data {

  Dataset ("ElectrostaticPotential") {
    function  = ElectrostaticPotential
    type      = scalar
    dimension = 1
    location  = vertex
    validity  = [ "substrate" ]
    Values (5293) {
 -3.5047888985310794e+02 -3.5047067152769210e+02 -3.5047888985310794e+02 -3.5047888985310794e+02 -3.5047067207549173e+02 -3.5047067166463751e+02 -3.5049459903196265e+02 -3.5048638155527237e+02 -3.5045550501363300e+02 -3.5045550609772079e+02
 -3.5045550528382199e+02 -3.5047121855096657e+02 -3.5042316237714806e+02 -3.5042319032755813e+02 -3.5042316786323062e+02 -3.5043906490816948e+02 -3.5028840737816552e+02 -3.5029880322508046e+02 -3.5029034078854102e+02 -3.5037463599037824e+02
 -3.4898452639132597e+02 -3.4901173129391168e+02 -3.4898875111242756e+02 -3.4910063996822021e+02 -3.4761335481912459e+02 -3.4764799334225000e+02 -3.4761796519868449e+02 -3.4770191986554170e+02 -3.4623866741188874e+02 -3.4627609166044499e+02
 -3.4624291375443153e+02 -3.4630382896590959e+02 -3.5047888985310794e+02 -3.5047067166464126e+02 -3.5049459903196265e+02 -3.5048638169221084e+02 -3.5045550528416527e+02 -3.5047121881860659e+02 -3.5042316846878765e+02 -3.5043906623891201e+02
 -3.5029060868141465e+02 -3.5037482931112862e+02 -3.4898957373525661e+02 -3.4910638055493172e+02 -3.4761913339317158e+02 -3.4770898817545509e+02 -3.4624425823923434e+02 -3.4631053823901630e+02 -3.3517096429718913e+02 -3.3518305228954944e+02
 -3.3517150873178554e+02 -3.3518511891817991e+02 -3.3517158292933351e+02 -3.3518571355736191e+02 -3.5047888985310794e+02 -3.5047067207549583e+02 -3.5049459903196265e+02 -3.5048638158950871e+02 -3.5045550609906297e+02 -3.5047121861790407e+02
 -3.5042319276877640e+02 -3.5043906531942241e+02 -3.5029988505225361e+02 -3.5037475376908344e+02 -3.4901590222349580e+02 -3.4910561577722621e+02 -3.4765484504883585e+02 -3.4771018486905211e+02 -3.4628509814218893e+02 -3.4631437044752403e+02
 -3.5049459903196265e+02 -3.5048638172644763e+02 -3.5047121888554619e+02 -3.5043906665249375e+02 -3.5037494930226279e+02 -3.4911159142882678e+02 -3.4771765885610245e+02 -3.4632158878590627e+02 -3.3519037397615256e+02 -3.3519264804869374e+02
 -3.3519329998062938e+02 -3.5047888985310794e+02 -3.5047067166463705e+02 -3.5049459903196265e+02 -3.5048638154034745e+02 -3.5045550528347911e+02 -3.5047121852176622e+02 -3.5042316723596628e+02 -3.5043906466544883e+02 -3.5029006315978125e+02
 -3.5037453358311120e+02 -3.4898788181052271e+02 -3.4909763646277264e+02 -3.4761661784647919e+02 -3.4769756004185541e+02 -3.4624120985438344e+02 -3.4629887445041936e+02 -3.5047888985310794e+02 -3.5047067151276610e+02 -3.5047717774777703e+02
 -3.5046895992545745e+02 -3.5045550498302106e+02 -3.5045379342706468e+02 -3.5042315964729795e+02 -3.5042136945260637e+02 -3.5028725572098813e+02 -3.5025877151322635e+02 -3.4898203692405542e+02 -3.4898052853753182e+02 -3.4761022231140936e+02
 -3.4762643369043434e+02 -3.4623524456757718e+02 -3.4626187003129303e+02 -3.3517064324147481e+02 -3.3518358095672210e+02 -3.3516963214510037e+02 -3.3518043358998926e+02 -3.5049459903196265e+02 -3.5048638157458373e+02 -3.5047121858870247e+02
 -3.5043906507314085e+02 -3.5037464813934065e+02 -3.4910239513515774e+02 -3.4770542850090465e+02 -3.4630888399752814e+02 -3.5047717774777703e+02 -3.5046895991741371e+02 -3.5045379341318244e+02 -3.5042137253254987e+02 -3.5026006005154466e+02
 -3.4898414229331962e+02 -3.4763235208019807e+02 -3.4626975892171600e+02 -3.3519087716914134e+02 -3.3518738588900482e+02 -3.2405987651605204e+02 -3.2406339299047210e+02 -3.2405991107965662e+02 -3.2406352467934806e+02 -3.2405984870040140e+02
 -3.2406348883525391e+02 -3.1292662606511124e+02 -3.1292772801742979e+02 -3.1292662078748401e+02 -3.1292772806271739e+02 -3.1292659176101597e+02 -3.1292769727389157e+02 -3.2406700841573252e+02 -3.2406715757667587e+02 -3.2406711525598564e+02
 -3.1292930587757274e+02 -3.1292930624613757e+02 -3.1292927126177563e+02 -3.2405963362837275e+02 -3.2406313482655150e+02 -3.2405947485916829e+02 -3.2406281415802641e+02 -3.1292654319665604e+02 -3.1292763228956932e+02 -3.1292651561206407e+02
 -3.1292759085816908e+02 -3.2406670585991134e+02 -3.2406633876673709e+02 -3.1292919630178767e+02 -3.1292914842977120e+02 -3.5047888985310794e+02 -3.5047067207549588e+02 -3.5049459903196265e+02 -3.5048638158950882e+02 -3.5045550609931888e+02
 -3.5047121861790873e+02 -3.5042319323909442e+02 -3.5043906533526257e+02 -3.5030009354173779e+02 -3.5037476784554536e+02 -3.4901673296984518e+02 -3.4910636328719022e+02 -3.4765626768154721e+02 -3.4771160453817902e+02 -3.4628704774071974e+02
 -3.4631637380613574e+02 -3.5049459903196265e+02 -3.5048638172644769e+02 -3.5047121888555074e+02 -3.5043906666803213e+02 -3.5037496313900550e+02 -3.4911234428548215e+02 -3.4771909322297773e+02 -3.4632361556893824e+02 -3.3519329127197716e+02
 -3.3519558061011423e+02 -3.3519622809253946e+02 -3.5047888985310794e+02 -3.5047067207549588e+02 -3.5049459903196265e+02 -3.5048638158950882e+02 -3.5045550609934958e+02 -3.5047121861790919e+02 -3.5042319329561275e+02 -3.5043906533709264e+02
 -3.5030011859648363e+02 -3.5037476947234410e+02 -3.4901683313616064e+02 -3.4910644972341441e+02 -3.4765643986372447e+02 -3.4771177028692802e+02 -3.4628728464958499e+02 -3.4631660982979469e+02 -3.5049459903196265e+02 -3.5048638172644769e+02
 -3.5047121888555125e+02 -3.5043906666979854e+02 -3.5037496471251700e+02 -3.4911243000223726e+02 -3.4771925825730415e+02 -3.4632385108073333e+02 -3.3519366114201347e+02 -3.3519595075673146e+02 -3.3519659574643981e+02 -3.5049459903196265e+02
 -3.5048638157458379e+02 -3.5047121858870707e+02 -3.5043906508893843e+02 -3.5037466215085215e+02 -3.4910312577422644e+02 -3.4770681132521952e+02 -3.4631083185975660e+02 -3.5047717774777703e+02 -3.5046895991741383e+02 -3.5045379341371068e+02
 -3.5042137343312476e+02 -3.5026042863574918e+02 -3.4898503620136233e+02 -3.4763376145868779e+02 -3.4627163593502900e+02 -3.3519375853338903e+02 -3.3519022883386128e+02 -3.5049459903196265e+02 -3.5048638157458379e+02 -3.5047121858870759e+02
 -3.5043906509077715e+02 -3.5037466378185684e+02 -3.4910321074154388e+02 -3.4770697355709183e+02 -3.4631106228512544e+02 -3.5047717774777703e+02 -3.5046895991741383e+02 -3.5045379341377657e+02 -3.5042137354538301e+02 -3.5026047457948965e+02
 -3.4898514703038859e+02 -3.4763393573916784e+02 -3.4627186787459777e+02 -3.3519411974289045e+02 -3.3519058607762906e+02 -3.2406891431909287e+02 -3.2406906404704068e+02 -3.2406901603603455e+02 -3.1293025657846761e+02 -3.1293025640151279e+02
 -3.1293021912422023e+02 -3.2406904997452813e+02 -3.2406919934366749e+02 -3.2406914968107657e+02 -3.1293019145759217e+02 -3.1293019106382121e+02 -3.1293015312721258e+02 -3.2406859271966312e+02 -3.2406821663492860e+02 -3.1293014063647070e+02
 -3.1293009086754932e+02 -3.2406872371143857e+02 -3.2406834618386813e+02 -3.1293007379978854e+02 -3.1293002362388251e+02 -3.0177636071117797e+02 -3.0177673355488690e+02 -3.0177635772086006e+02 -3.0177673065504717e+02 -3.0177634872835040e+02
 -3.0177672080042868e+02 -2.9061052036573966e+02 -2.9061064113224654e+02 -2.9061051956802157e+02 -2.9061064029310279e+02 -2.9061051750119259e+02 -2.9061063806628198e+02 -3.0177737433077476e+02 -3.0177737113605252e+02 -3.0177736007643534e+02
 -2.9061086736589192e+02 -2.9061086644492559e+02 -2.9061086398530279e+02 -3.0177633744183498e+02 -3.0177670740341262e+02 -3.0177633197897296e+02 -3.0177670056453917e+02 -2.9061051524378109e+02 -2.9061063557309461e+02 -2.9061051424757437e+02
 -2.9061063445228598e+02 -3.0177734485113541e+02 -3.0177733703342767e+02 -2.9061086121236809e+02 -2.9061085996024929e+02 -2.6823357451378251e+02 -2.6823360031770699e+02 -2.6823357443397578e+02 -2.6823360023400824e+02 -2.6823357423685951e+02
 -2.6823360002615073e+02 -2.6823365267376994e+02 -2.6823365258317233e+02 -2.6823365235767409e+02 -2.6823357403355021e+02 -2.6823359981030023e+02 -2.6823357394738531e+02 -2.6823359971835214e+02 -2.6823365212283113e+02 -2.6823365202259299e+02
 -3.0177776285589050e+02 -3.0177775943110976e+02 -3.0177774769461837e+02 -2.9061098131895528e+02 -2.9061098034217031e+02 -2.9061097773720854e+02 -3.0177761336697921e+02 -3.0177760986497992e+02 -3.0177759792214897e+02 -2.9061082920258559e+02
 -2.9061082820673658e+02 -2.9061082555375236e+02 -3.0177773163115586e+02 -3.0177772341317228e+02 -2.9061097480446193e+02 -2.9061097348160172e+02 -3.0177758162519149e+02 -3.0177757330192100e+02 -2.9061082257021229e+02 -2.9061082122546350e+02
 -2.6823368018893365e+02 -2.6823368009334416e+02 -2.6823367985544439e+02 -2.6823363964191242e+02 -2.6823363954450252e+02 -2.6823363930213293e+02 -2.6823367960771344e+02 -2.6823367950198860e+02 -2.6823363904982745e+02 -2.6823363894217653e+02
 -2.4579701179017630e+02 -2.4579704297888750e+02 -2.4579701178263778e+02 -2.4579704297106906e+02 -2.4579701176425903e+02 -2.4579704295198962e+02 -2.4579712725027289e+02 -2.4579712724193146e+02 -2.4579712722156270e+02 -2.4579701174558747e+02
 -2.4579704293257387e+02 -2.4579701173771750e+02 -2.4579704292438484e+02 -2.4579712720081957e+02 -2.4579712719206941e+02 -2.2330078674591155e+02 -2.2330086050734405e+02 -2.2330078674516071e+02 -2.2330086050657252e+02 -2.2330078674329991e+02
 -2.2330086050466724e+02 -2.2330106963840757e+02 -2.2330106963759718e+02 -2.2330106963559780e+02 -2.2330078674132835e+02 -2.2330086050264927e+02 -2.2330078674042770e+02 -2.2330086050173139e+02 -2.2330106963348476e+02 -2.2330106963252751e+02
 -2.4579724137242522e+02 -2.4579724136367210e+02 -2.4579724134229832e+02 -2.4579735791217544e+02 -2.4579735790325225e+02 -2.4579735788146476e+02 -2.4579724132053485e+02 -2.4579724131135757e+02 -2.4579735785928344e+02 -2.4579735784993210e+02
 -2.2330138011340233e+02 -2.2330138011255679e+02 -2.2330138011047225e+02 -2.2330174249829363e+02 -2.2330174249742188e+02 -2.2330174249527352e+02 -2.2330138010827375e+02 -2.2330138010728126e+02 -2.2330174249301069e+02 -2.2330174249199158e+02
 -2.0074455852388763e+02 -2.0074472347162833e+02 -2.0074455852387871e+02 -2.0074472347161660e+02 -2.0074455852381226e+02 -2.0074472347154926e+02 -2.0074519356640434e+02 -2.0074519356638913e+02 -2.0074519356631399e+02 -2.0074455852363809e+02
 -2.0074472347137305e+02 -2.0074455852347981e+02 -2.0074472347121605e+02 -2.0074519356612996e+02 -2.0074519356596997e+02 -1.7812759755177623e+02 -1.7812795267969352e+02 -1.7812759755321071e+02 -1.7812795268112674e+02 -1.7812759755662830e+02
 -1.7812795268454690e+02 -1.7812896644511062e+02 -1.7812896644654265e+02 -1.7812896644996061e+02 -1.7812759755993568e+02 -1.7812795268785558e+02 -1.7812759756121557e+02 -1.7812795268913791e+02 -1.7812896645326705e+02 -1.7812896645454873e+02
 -2.0074589813150942e+02 -2.0074589813148833e+02 -2.0074589813139897e+02 -2.0074673081864455e+02 -2.0074673081860828e+02 -2.0074673081848184e+02 -2.0074589813120099e+02 -2.0074589813103549e+02 -2.0074673081824636e+02 -2.0074673081806546e+02
 -1.7813049049371665e+02 -1.7813049049514206e+02 -1.7813049049854399e+02 -1.7813229895561017e+02 -1.7813229895701204e+02 -1.7813229896035665e+02 -1.7813049050183474e+02 -1.7813049050311020e+02 -1.7813229896358968e+02 -1.7813229896484143e+02
 -3.5047888985310794e+02 -3.5047067207549588e+02 -3.5049459903196265e+02 -3.5048638158950882e+02 -3.5045550609925101e+02 -3.5047121861790760e+02 -3.5042319311431152e+02 -3.5043906533127364e+02 -3.5030003822235915e+02 -3.5037476429972838e+02
 -3.4901651068846542e+02 -3.4910617484504246e+02 -3.4765587956990703e+02 -3.4771123764662877e+02 -3.4628650013235898e+02 -3.4631583804969654e+02 -3.5049459903196265e+02 -3.5048638172644769e+02 -3.5047121888554972e+02 -3.5043906666418570e+02
 -3.5037495971244840e+02 -3.4911215754198588e+02 -3.4771872807777055e+02 -3.4632308104645961e+02 -3.3519184854938845e+02 -3.3519413853868764e+02 -3.3519478490002308e+02 -3.5047888985310794e+02 -3.5047067207549577e+02 -3.5049459903196265e+02
 -3.5048638158950865e+02 -3.5045550609881803e+02 -3.5047121861790021e+02 -3.5042319231885688e+02 -3.5043906530539965e+02 -3.5029968561844873e+02 -3.5037474130596661e+02 -3.4901511451550033e+02 -3.4910495485187084e+02 -3.4765349371830894e+02
 -3.4770891557209831e+02 -3.4628323102650211e+02 -3.4631255099918269e+02 -3.5049459903196265e+02 -3.5048638172644763e+02 -3.5047121888554250e+02 -3.5043906663900208e+02 -3.5037493728440342e+02 -3.4911093754474217e+02 -3.4771639734703513e+02
 -3.4631977560190484e+02 -3.3518667498975515e+02 -3.3518895223350000e+02 -3.3518960127783180e+02 -3.5049459903196265e+02 -3.5048638157458379e+02 -3.5047121858870594e+02 -3.5043906508474578e+02 -3.5037465843231649e+02 -3.4910293218501010e+02
 -3.4770643633999271e+02 -3.4631028622905740e+02 -3.5047717774777703e+02 -3.5046895991741377e+02 -3.5045379341355550e+02 -3.5042137316862153e+02 -3.5026032037961500e+02 -3.4898477343929517e+02 -3.4763334202184546e+02 -3.4627106413135601e+02
 -3.3519231188483974e+02 -3.3518877889345282e+02 -3.5049459903196265e+02 -3.5048638157458373e+02 -3.5047121858869843e+02 -3.5043906505836196e+02 -3.5037463503487157e+02 -3.4910171488636337e+02 -3.4770412894240894e+02 -3.4630702784683285e+02
 -3.5047717774777703e+02 -3.5046895991741360e+02 -3.5045379341261639e+02 -3.5042137156809139e+02 -3.5025966537636117e+02 -3.4898320219227992e+02 -3.4763088188512171e+02 -3.4626780006761612e+02 -3.3518716666437223e+02 -3.3518366326244109e+02
 -3.2406738481422059e+02 -3.2406753442199425e+02 -3.2406748583103530e+02 -3.1292899584120505e+02 -3.1292899559718683e+02 -3.1292895812560192e+02 -3.2406359481750309e+02 -3.2406374379136969e+02 -3.2406369994900518e+02 -3.1292671108458916e+02
 -3.1292671129890084e+02 -3.1292667583077849e+02 -3.2406706160424375e+02 -3.2406668496863745e+02 -3.1292887940180373e+02 -3.1292882951786112e+02 -3.2406328784325342e+02 -3.2406291898466787e+02 -3.1292660024617015e+02 -3.1292655205561346e+02
 -3.5047888985310794e+02 -3.5047067206802814e+02 -3.5049459903196265e+02 -3.5048638155154083e+02 -3.5045550608160198e+02 -3.5047121854364900e+02 -3.5042318747161931e+02 -3.5043906478807293e+02 -3.5029756639000590e+02 -3.5037455829637901e+02
 -3.4900778619214685e+02 -3.4909741972430959e+02 -3.4764196093262456e+02 -3.4769631905257171e+02 -3.4626844474668957e+02 -3.4629640282582091e+02 -3.5049459903196265e+02 -3.5048638168847936e+02 -3.5047121881129021e+02 -3.5043906612216449e+02
 -3.5037475441439830e+02 -3.4910320171480276e+02 -3.4770343284883245e+02 -3.4630314930767770e+02 -3.3517495441094661e+02 -3.3517703519780559e+02 -3.3517762608724769e+02 -3.5047717774777709e+02 -3.5046895927831963e+02 -3.5047717774777709e+02
 -3.5046895942601299e+02 -3.5045379212095196e+02 -3.5045379241448393e+02 -3.5042129538877111e+02 -3.5042130454312496e+02 -3.5023070105282153e+02 -3.5023394029298947e+02 -3.4893188366928678e+02 -3.4893693859318518e+02 -3.4756892911918385e+02
 -3.4757404182751662e+02 -3.4620131439030280e+02 -3.4620582400677353e+02 -3.5047717774777709e+02 -3.5046895942601736e+02 -3.5045379241522846e+02 -3.5042130578533983e+02 -3.5023444681088944e+02 -3.4893794044938585e+02 -3.4757533126760893e+02
 -3.4620723887296407e+02 -3.3515563502986652e+02 -3.3515619685352095e+02 -3.3515626763671690e+02 -3.5049459903196265e+02 -3.5048638153661591e+02 -3.5047121851444768e+02 -3.5043906454173833e+02 -3.5037445285728597e+02 -3.4909434208879918e+02
 -3.4769185233876823e+02 -3.4629132737825802e+02 -3.5047717774777703e+02 -3.5046895991740780e+02 -3.5045379340803385e+02 -3.5042136378775490e+02 -3.5025648259758219e+02 -3.4897585104340192e+02 -3.4761989580394896e+02 -3.4625388827809974e+02
 -3.3517546103297383e+02 -3.3517227468621229e+02 -3.5047717774777709e+02 -3.5046895942601230e+02 -3.5045379241368920e+02 -3.5042130319190198e+02 -3.5023338918980215e+02 -3.4893582324197439e+02 -3.4757247978730004e+02 -3.4620393651192268e+02
 -3.5047717774777709e+02 -3.5046895926222169e+02 -3.5045379208657937e+02 -3.5042129034228674e+02 -3.5022869979626881e+02 -3.4892875317209734e+02 -3.4756531763545718e+02 -3.4619754241866184e+02 -3.3515528539977998e+02 -3.3515423166387120e+02
 -3.2405756337851869e+02 -3.2405769526407033e+02 -3.2405765669822932e+02 -3.1292382687409957e+02 -3.1292382668972328e+02 -3.1292379505777797e+02 -3.2405196911581203e+02 -3.2405200397171257e+02 -3.2405193838261971e+02 -3.1292198261977677e+02
 -3.1292197707614400e+02 -3.1292194705052236e+02 -3.2405729665877328e+02 -3.2405697157369212e+02 -3.1292372887927388e+02 -3.1292368679666981e+02 -3.2405171585403474e+02 -3.2405155194640474e+02 -3.1292189704402824e+02 -3.1292186867823233e+02
 -3.0177684474121565e+02 -3.0177684129501586e+02 -3.0177682950317683e+02 -2.9061037222787672e+02 -2.9061037124606111e+02 -2.9061036862864745e+02 -3.0177557187178149e+02 -3.0177556862783655e+02 -3.0177555743768630e+02 -2.9060970571636943e+02
 -2.9060970478420722e+02 -2.9060970229660006e+02 -3.0177681337940976e+02 -3.0177680513466862e+02 -2.9061036568301870e+02 -2.9061036435467963e+02 -3.0177554206606743e+02 -3.0177553418193077e+02 -2.9060969949431933e+02 -2.9060969822954479e+02
 -2.6823351966791694e+02 -2.6823351957179017e+02 -2.6823351933257709e+02 -2.6823335032109117e+02 -2.6823335022923987e+02 -2.6823335000063065e+02 -2.6823351908350833e+02 -2.6823351897721989e+02 -2.6823334976252414e+02 -2.6823334966083684e+02
 -3.0177419866996894e+02 -3.0177419569154921e+02 -3.0177418561980278e+02 -2.9060906778797175e+02 -2.9060906693107438e+02 -2.9060906465911228e+02 -3.0177349874756601e+02 -3.0177349566509815e+02 -3.0177348641519916e+02 -2.9060878646645148e+02
 -2.9060878564732678e+02 -2.9060878352482553e+02 -3.0177417196909010e+02 -3.0177416501066841e+02 -2.9060906211720459e+02 -2.9060906097426357e+02 -3.0177347482184314e+02 -3.0177346920732731e+02 -2.9060878120293046e+02 -2.9060878016976943e+02
 -2.6823319706405300e+02 -2.6823319697802447e+02 -2.6823319676411290e+02 -2.6823313393520289e+02 -2.6823313385173839e+02 -2.6823313364405232e+02 -2.6823319654116534e+02 -2.6823319644516954e+02 -2.6823313342437632e+02 -2.6823313332180464e+02
 -2.4579745468129477e+02 -2.4579745467243328e+02 -2.4579745465079111e+02 -2.4579752051217633e+02 -2.4579752050348782e+02 -2.4579752048222295e+02 -2.4579745462874823e+02 -2.4579745461944998e+02 -2.4579752046046886e+02 -2.4579752045121424e+02
 -2.2330210067901857e+02 -2.2330210067810344e+02 -2.2330210067584446e+02 -2.2330240094372590e+02 -2.2330240094264769e+02 -2.2330240093994425e+02 -2.2330210067346104e+02 -2.2330210067238690e+02 -2.2330240093701340e+02 -2.2330240093563197e+02
 -2.4579755558948446e+02 -2.4579755558068589e+02 -2.4579755555886211e+02 -2.4579756606116158e+02 -2.4579756605149814e+02 -2.4579756602630462e+02 -2.4579755553572855e+02 -2.4579755552489283e+02 -2.4579756599500439e+02 -2.4579756597175142e+02
 -2.2330259977004127e+02 -2.2330259976840395e+02 -2.2330259976403104e+02 -2.2330266922881194e+02 -2.2330266922606438e+02 -2.2330266921769186e+02 -2.2330259975857066e+02 -2.2330259975509949e+02 -2.2330266920329456e+02 -2.2330266918650892e+02
 -2.0074756525980612e+02 -2.0074756525971642e+02 -2.0074756525945500e+02 -2.0074827405336106e+02 -2.0074827405308005e+02 -2.0074827405230553e+02 -2.0074756525907449e+02 -2.0074756525882853e+02 -2.0074827405130861e+02 -2.0074827405072651e+02
 -1.7813411926548963e+02 -1.7813411926681857e+02 -1.7813411926998103e+02 -1.7813567192722084e+02 -1.7813567192832909e+02 -1.7813567193090742e+02 -1.7813411927302192e+02 -1.7813411927418909e+02 -1.7813567193326088e+02 -1.7813567193406243e+02
 -2.0074874836608274e+02 -2.0074874836520837e+02 -2.0074874836268023e+02 -2.0074891505550869e+02 -2.0074891505350644e+02 -2.0074891504692920e+02 -2.0074874835906553e+02 -2.0074874835633659e+02 -2.0074891503423237e+02 -2.0074891501752808e+02
 -1.7813671431807586e+02 -1.7813671431856184e+02 -1.7813671431931627e+02 -1.7813708130457582e+02 -1.7813708130392118e+02 -1.7813708130059064e+02 -1.7813671431897916e+02 -1.7813671431758456e+02 -1.7813708129104563e+02 -1.7813708127498592e+02
 -1.5544838228385120e+02 -1.5544913406532439e+02 -1.5544838230094470e+02 -1.5544913408242189e+02 -1.5544838234216743e+02 -1.5544913412365969e+02 -1.5545128491865910e+02 -1.5545128493576186e+02 -1.5545128497701299e+02 -1.5544838238327969e+02
 -1.5544913416478551e+02 -1.5544838240021542e+02 -1.5544913418172851e+02 -1.5545128501815211e+02 -1.5545128503510094e+02 -1.3270373893243163e+02 -1.3270530533167891e+02 -1.3270373912609639e+02 -1.3270530552543994e+02 -1.3270373959365776e+02
 -1.3270530599323897e+02 -1.3270980492580725e+02 -1.3270980511975381e+02 -1.3270980558800153e+02 -1.3270374006118925e+02 -1.3270530646100653e+02 -1.3270374025477375e+02 -1.3270530665469036e+02 -1.3270980605621818e+02 -1.3270980625008838e+02
 -1.5545453193059541e+02 -1.5545453194767188e+02 -1.5545453198885954e+02 -1.5545840642922764e+02 -1.5545840644618823e+02 -1.5545840648709563e+02 -1.5545453202993554e+02 -1.5545453204685850e+02 -1.5545840652789096e+02 -1.5545840654469785e+02
 -1.3271664958956157e+02 -1.3271664978344549e+02 -1.3271665025154223e+02 -1.3272490140793460e+02 -1.3272490160086932e+02 -1.3272490206667408e+02 -1.3271665071960848e+02 -1.3271665091341683e+02 -1.3272490253244803e+02 -1.3272490272530706e+02
 -1.0988714484684138e+02 -1.0989032427525456e+02 -1.0988714703124238e+02 -1.0989032646117622e+02 -1.0988715230685143e+02 -1.0989033174046625e+02 -1.0989952510528450e+02 -1.0989952729465087e+02 -1.0989953258226608e+02 -1.0988715758525977e+02
 -1.0989033702256032e+02 -1.0988715977240669e+02 -1.0989033921123712e+02 -1.0989953787269700e+02 -1.0989954006483067e+02 -8.6985632031849093e+01 -8.6991774261640202e+01 -8.6985656636319931e+01 -8.6991798887716726e+01 -8.6985716105824451e+01
 -8.6991858409576722e+01 -8.7009789233349551e+01 -8.7009813912304168e+01 -8.7009873562126387e+01 -8.6985775674272560e+01 -8.6991918030639852e+01 -8.6985800377651103e+01 -8.6991942755887081e+01 -8.7009933311572738e+01 -8.7009958090118843e+01
 -1.0991371908294573e+02 -1.0991372127417387e+02 -1.0991372656629146e+02 -1.0993116315401635e+02 -1.0993116533809841e+02 -1.0993117061296675e+02 -1.0991373186123573e+02 -1.0991373405524234e+02 -1.0993117589066613e+02 -1.0993117807753130e+02
 -8.7038304682352532e+01 -8.7038329412118884e+01 -8.7038389184884608e+01 -8.7074623385326930e+01 -8.7074648084630809e+01 -8.7074707784074491e+01 -8.7038449057656820e+01 -8.7038473887397075e+01 -8.7074767583829185e+01 -8.7074792383411804e+01
 -6.3974780575529820e+01 -6.3985531786030066e+01 -6.3975056929740013e+01 -6.3985808429162077e+01 -6.3975726432465322e+01 -6.3986478637043454e+01 -6.4017848265949155e+01 -6.4018125635503409e+01 -6.4018797608089145e+01 -6.3976399297931877e+01
 -6.3987152218025017e+01 -6.3976679016230733e+01 -6.3987432235545008e+01 -6.4019472968880947e+01 -6.4019753727881039e+01 -5.2413003761104868e+01 -5.2416448154818418e+01 -5.2414347074049651e+01 -5.2425907605362376e+01 -5.2427252569057060e+01
 -5.2417782539848908e+01 -5.2417620682927350e+01 -5.2430530311263340e+01 -5.2421034074682808e+01 -4.0798071906409696e+01 -4.0803578921252388e+01 -4.0801555905088819e+01 -4.0807064536287832e+01 -4.0812122455079169e+01 -4.0817637129575168e+01
 -4.0817174959041417e+01 -4.0820665173160435e+01 -4.0831253636218491e+01 -5.2442504024169423e+01 -5.2465571070806803e+01 -5.2466919976814381e+01 -5.2443841367855896e+01 -5.2470207392728597e+01 -5.2447100229319688e+01 -4.0830286366017802e+01
 -4.0835808288554489e+01 -4.0856711285511174e+01 -4.0862242767945780e+01 -4.0849443244881670e+01 -4.0875901466736927e+01 -5.2420939155203641e+01 -5.2433853112616667e+01 -5.2424329689212335e+01 -5.2422327367873066e+01 -5.2435243169311214e+01
 -5.2425708188232782e+01 -4.0831222393097164e+01 -4.0834718081406123e+01 -4.0845324076209437e+01 -4.0837181474040882e+01 -4.0840679628929955e+01 -4.0851293298410042e+01 -5.2473540080319808e+01 -5.2450403416986177e+01 -5.2474934290692140e+01
 -5.2451785118950454e+01 -4.0863533396544966e+01 -4.0890016262796301e+01 -4.0869511114027297e+01 -4.0896004437205001e+01 -6.4071472453857268e+01 -6.4071750711870450e+01 -6.4072424838817497e+01 -6.4144449928031420e+01 -6.4144728529726706e+01
 -6.4145403497071698e+01 -6.4073102367103473e+01 -6.4073384027686657e+01 -6.4146081880465417e+01 -6.4146363899442690e+01 -5.2496372606219204e+01 -5.2534298909816300e+01 -5.2535653185147510e+01 -5.2497714616672745e+01 -5.2538953680304189e+01
 -5.2500984865428528e+01 -4.0892396967298723e+01 -4.0897938608809078e+01 -4.0938458078103210e+01 -4.0944012932955786e+01 -4.0911622322238763e+01 -4.0957729136950967e+01 -5.2580470137935158e+01 -5.2634007541163832e+01 -5.2635367055540129e+01
 -5.2581817868439927e+01 -5.2638680374477786e+01 -5.2585102061691977e+01 -4.0996276951653343e+01 -4.1001846410674418e+01 -4.1067171438276048e+01 -4.1072757435385000e+01 -4.1015598618887850e+01 -4.1086550672642410e+01 -5.2542299608483212e+01
 -5.2504299606672610e+01 -5.2543699349384283e+01 -5.2505686141259893e+01 -4.0925762799491338e+01 -4.0971902916857061e+01 -4.0931761798079044e+01 -4.0977915940513469e+01 -5.2642039368378782e+01 -5.2588430934396307e+01 -5.2643444590309805e+01
 -5.2589823375971456e+01 -4.1029809422802124e+01 -4.1100804011059019e+01 -4.1035838070424923e+01 -4.1106850702852775e+01 -2.9096358548793877e+01 -2.9099411005573590e+01 -2.9117716361738871e+01 -2.9120777202176338e+01 -2.9108977070269141e+01
 -2.9130366704084089e+01 -2.9172148542953835e+01 -2.9175240795925696e+01 -2.9184903251096365e+01 -1.7183057153653074e+01 -1.7182719928331018e+01 -1.7202011864679879e+01 -1.7183534903090784e+01 -1.7257680574095442e+01 -1.7201690747593613e+01
 -1.7258455766820649e+01 -1.7202487263982334e+01 -1.7257977980641542e+01 -1.7185392076319317e+01 -1.7204338330648731e+01 -1.7188159245420390e+01 -1.7263125435951093e+01 -1.7207119314533522e+01 -1.7260306676953004e+01 -1.7348914827255694e+01
 -1.7467761778568860e+01 -1.7348646807954637e+01 -1.7468717140059525e+01 -1.7349463516288861e+01 -1.7468005190648253e+01 -1.7351335215859354e+01 -1.7473753039734508e+01 -1.7354260432648513e+01 -1.7470643637887708e+01 -2.9125995898383735e+01
 -2.9147416397587236e+01 -2.9151703196760863e+01 -2.9173157853077104e+01 -2.9202037631858644e+01 -2.9227867222786536e+01 -1.7192897539439365e+01 -1.7211862909255839e+01 -1.7198951488549927e+01 -1.7274016131584837e+01 -1.7217936383422316e+01
 -1.7267893803531777e+01 -1.7207306510547845e+01 -1.7226299025947352e+01 -1.7217287836159215e+01 -1.7292459013161796e+01 -1.7236301264237397e+01 -1.7282406868212711e+01 -1.7359063757771715e+01 -1.7484988296524662e+01 -1.7365292434114611e+01
 -1.7478598531291084e+01 -1.7373713235298624e+01 -1.7503736961169430e+01 -1.7383869256558842e+01 -1.7493430944338272e+01 -2.9231040143965650e+01 -2.9234177297256949e+01 -2.9243933215777442e+01 -2.9256869597552758e+01 -2.9260028000136295e+01
 -2.9269827229427843e+01 -1.7601916782524736e+01 -1.7727791228372368e+01 -1.7601693403412572e+01 -1.7729245678871813e+01 -1.7602903054972280e+01 -1.7727971297618495e+01 -1.7604904179799732e+01 -1.7734959918728347e+01 -1.7608280638632884e+01
 -1.7731302620565771e+01 -1.7819309799281253e+01 -1.7853144054749386e+01 -1.7819173707423928e+01 -1.7854835103284735e+01 -1.7820803454885084e+01 -1.7853252891310774e+01 -1.7822891375840531e+01 -1.7860882139796939e+01 -1.7826764035328193e+01
 -1.7856922092320126e+01 -2.9261165535898233e+01 -2.9287090857009066e+01 -2.9287103427372788e+01 -2.9313070437026187e+01 -1.7613154372103995e+01 -1.7746677160144632e+01 -1.7619763789542141e+01 -1.7739838928201745e+01 -1.7628199652142680e+01
 -1.7765795723332111e+01 -1.7638707413849716e+01 -1.7755079870724188e+01 -1.7831636886029909e+01 -1.7872829533307282e+01 -1.7838651799965881e+01 -1.7865741132240185e+01 -1.7847019643103067e+01 -1.7892117754894397e+01 -1.7857897002781023e+01
 -1.7881172961338599e+01 -1.0986918914668554e+01 -1.1015292958760366e+01 -1.0988634052971033e+01 -1.1017283593739403e+01 -1.0984321948187260e+01 -1.1012474957356096e+01 -1.1108665327707024e+01 -1.1106379504816848e+01 -1.1103250795655766e+01
 -4.5753596024121714e+00 -4.5636022801309855e+00 -4.5941593914420320e+00 -4.5773201551374587e+00 -4.5520577621275207e+00 -4.5636544936539858e+00 -4.6838425266912358e+00 -4.6636019357583836e+00 -4.6474745038853742e+00 -1.0982753432261342e+01
 -1.1010807827188668e+01 -1.0982832723945897e+01 -1.1010859650645818e+01 -1.1101437193820782e+01 -1.1101463868758165e+01 -4.5453750427465609e+00 -4.5563882667983968e+00 -4.5424363611252989e+00 -4.5533197961771563e+00 -4.6392689361432060e+00
 -4.6359380072828253e+00 -1.1270175371562878e+01 -1.1272642257245035e+01 -1.1266926017878859e+01 -1.1518177497393735e+01 -1.1515883132054341e+01 -1.1513004245909237e+01 -4.8864261942692853e+00 -4.8632048575613265e+00 -4.8452792439556172e+00
 -5.2767926579414217e+00 -5.2529530213805602e+00 -5.2355214089133106e+00 -1.1265122638407673e+01 -1.1265238012663994e+01 -1.1511564215895943e+01 -1.1511981416095331e+01 -4.8364971590221435e+00 -4.8330858264079204e+00 -5.2273505470102108e+00
 -5.2243833669821651e+00 -2.9627020075875921e+00 -2.9399568762950476e+00 -2.9645893960794694e+00 -2.9199969204806990e+00 -1.3618661936007574e+00 -1.3255069764731551e+00 -1.3423680356935905e+00 -1.2392511578163208e+00 1.4559439130610524e-01
 1.8592021463045630e-01 1.7767121471685277e-01 3.6303639959502770e-01 4.2282426830252218e-01 4.2293390485866472e-01 4.2291507431627995e-01 4.3837624815212678e-01 -2.9259212782764954e+00 -2.9018160733922991e+00 -1.3113547281182560e+00
 -1.2203406305017950e+00 1.9449461870392082e-01 3.6496883446570050e-01 4.2295349232764412e-01 4.3838314634926001e-01 -3.0318388335337061e+00 -2.9790169972708740e+00 -1.3821613599062703e+00 -1.2644993211969615e+00 1.6267964117143166e-01
 3.6347260099098616e-01 4.2288087467036406e-01 4.3838139472054632e-01 -2.9568472171107194e+00 -1.2403492130906100e+00 3.6732903201344919e-01 4.3904343495713177e-01 4.5545502329295712e-01 4.5545917466403751e-01 4.5545918493032883e-01