DF-ISE text

Info {
  version = 1.0
  type    = dataset
  dimension   = 3
  nb_vertices = 5293
  nb_edges    = 23303
  nb_faces    = 30690
  nb_elements = 12980
  nb_regions  = 3
  datasets    = [ "ElectrostaticPotential" "ContactExternalVoltage" "ContactCurrentFlux" "ContactCharge" "eQuasiFermiPotential" "hQuasiFermiPotential" "QuasiFermiPotential" "LatticeTemperature" ]
  functions   = [ ElectrostaticPotential ContactExternalVoltage ContactCurrentFlux ContactCharge eQuasiFermiPotential hQuasiFermiPotential QuasiFermiPotential LatticeTemperature ]
}

Data {

  Dataset ("ElectrostaticPotential") {
    function  = ElectrostaticPotential
    type      = scalar
    dimension = 1
    location  = vertex
    validity  = [ "substrate" ]
    Values (5293) {
 -6.0378889853107935e+01 -6.0370671534317445e+01 -6.0378889853107935e+01 -6.0378889853107935e+01 -6.0370672082159608e+01 -6.0370671671269413e+01 -6.0394599031962677e+01 -6.0386381561945299e+01 -6.0355505124006342e+01 -6.0355506195577910e+01
 -6.0355505391860440e+01 -6.0371218562380314e+01 -6.0323353091174916e+01 -6.0323357973424869e+01 -6.0323354277899348e+01 -6.0339082332387278e+01 -6.0273175972060336e+01 -6.0273389155028731e+01 -6.0273214286224871e+01 -6.0290145660335767e+01
 -6.0128646970767250e+01 -6.0137387469045677e+01 -6.0130068549873187e+01 -6.0179903379249389e+01 -5.9919656829327884e+01 -5.9933058993922643e+01 -5.9921545844991954e+01 -5.9959350060459720e+01 -5.9708170304803630e+01 -5.9723778974329953e+01
 -5.9710083997546782e+01 -5.9737333544840673e+01 -6.0378889853107935e+01 -6.0370671671275609e+01 -6.0394599031962677e+01 -6.0386381698888890e+01 -6.0355505391884364e+01 -6.0371218829970132e+01 -6.0323354291859410e+01 -6.0339083466526532e+01
 -6.0273220410106575e+01 -6.0290173957095455e+01 -6.0130376803829655e+01 -6.0181824094223742e+01 -5.9922106765158517e+01 -5.9962495587162159e+01 -5.9710813187064772e+01 -5.9740721041341402e+01 -5.7981113826905215e+01 -5.7986401408145603e+01
 -5.7981405707052701e+01 -5.7987462715861753e+01 -5.7981556046559064e+01 -5.7987933324121258e+01 -6.0378889853107935e+01 -6.0370672082171616e+01 -6.0394599031962677e+01 -6.0386381596189800e+01 -6.0355506195629516e+01 -6.0371218629293686e+01
 -6.0323358026636463e+01 -6.0339082625037229e+01 -6.0273412802434343e+01 -6.0290160755738086e+01 -6.0138592686806568e+01 -6.0181218775104107e+01 -5.9935479729724094e+01 -5.9962303439996404e+01 -5.9727208137643956e+01 -5.9741443276123483e+01
 -6.0394599031962677e+01 -6.0386381733134108e+01 -6.0371218896885381e+01 -6.0339083759497150e+01 -6.0290189318782723e+01 -6.0183169601877651e+01 -5.9965606725569927e+01 -5.9745079661332596e+01 -5.7989512101677278e+01 -5.7990678985590115e+01
 -5.7991204275595500e+01 -6.0378889853107935e+01 -6.0370671671268369e+01 -6.0394599031962677e+01 -6.0386381547019262e+01 -6.0355505391856418e+01 -6.0371218533212257e+01 -6.0323354274533067e+01 -6.0339082208016663e+01 -6.0273212795559040e+01
 -6.0290141967135234e+01 -6.0129993308560010e+01 -6.0179634698998527e+01 -5.9921400829389889e+01 -5.9958838905564114e+01 -5.9709884279216496e+01 -5.9736700575636164e+01 -6.0378889853107935e+01 -6.0370671519390342e+01 -6.0377177747777047e+01
 -6.0368959932136647e+01 -6.0355505094807441e+01 -6.0353793594354329e+01 -6.0323352958624334e+01 -6.0321643263814131e+01 -6.0273170402027240e+01 -6.0271498342514249e+01 -6.0128423967476259e+01 -6.0133059175079694e+01 -5.9919307897349221e+01
 -5.9930023546103548e+01 -5.9707753784329817e+01 -5.9721798068141361e+01 -5.7981294212413673e+01 -5.7987257688993061e+01 -5.7980940921897236e+01 -5.7986044725423760e+01 -6.0394599031962677e+01 -6.0386381581263556e+01 -6.0371218600125154e+01
 -6.0339082500526089e+01 -6.0290156941646124e+01 -6.0180937214512390e+01 -5.9961748994062070e+01 -5.9740743654453865e+01 -6.0377177747777047e+01 -6.0368959924100452e+01 -6.0353793578669553e+01 -6.0321643255903211e+01 -6.0271521754823603e+01
 -6.0134189986189583e+01 -5.9932315885347414e+01 -5.9725072281829299e+01 -5.7990442178092138e+01 -5.7989104060703902e+01 -5.6226294023559085e+01 -5.6227857146212848e+01 -5.6226326439948636e+01 -5.6227942302489588e+01 -5.6226339924590640e+01
 -5.6227983785870371e+01 -5.4453235510458647e+01 -5.4453737587129183e+01 -5.4453238041651133e+01 -5.4453743745055554e+01 -5.4453236993372691e+01 -5.4453744613136578e+01 -5.6229461182612319e+01 -5.6229557867884687e+01 -5.6229605291680045e+01
 -5.4454476213191867e+01 -5.4454483388314848e+01 -5.4454484494071842e+01 -5.6226289897783396e+01 -5.6227889983701537e+01 -5.6226241008521477e+01 -5.6227779022680444e+01 -5.4453227729467478e+01 -5.4453730875643622e+01 -5.4453220821481793e+01
 -5.4453719129233690e+01 -5.6229496976438206e+01 -5.6229370408244833e+01 -5.4454468545223378e+01 -5.4454454925120814e+01 -6.0378889853107935e+01 -6.0370672082172767e+01 -6.0394599031962677e+01 -6.0386381596191050e+01 -6.0355506195636302e+01
 -6.0371218629295768e+01 -6.0323358036785663e+01 -6.0339082626891233e+01 -6.0273417333441984e+01 -6.0290162402344613e+01 -6.0138824179088715e+01 -6.0181390853579771e+01 -5.9935963178468114e+01 -5.9962771893339173e+01 -5.9727921555906100e+01
 -5.9742174300639505e+01 -6.0394599031962677e+01 -6.0386381733135380e+01 -6.0371218896887463e+01 -6.0339083761304607e+01 -6.0290190924455814e+01 -6.0183337769313837e+01 -5.9966079300468380e+01 -5.9745822514132875e+01 -5.7990789485231367e+01
 -5.7991965336774051e+01 -5.7992495254567373e+01 -6.0378889853107935e+01 -6.0370672082172881e+01 -6.0394599031962677e+01 -6.0386381596191164e+01 -6.0355506195637382e+01 -6.0371218629295981e+01 -6.0323358038519636e+01 -6.0339082627189768e+01
 -6.0273418107621190e+01 -6.0290162668254872e+01 -6.0138863749577574e+01 -6.0181418659984971e+01 -5.9936046593346781e+01 -5.9962848883255525e+01 -5.9728046464547823e+01 -5.9742296853093947e+01 -6.0394599031962677e+01 -6.0386381733135494e+01
 -6.0371218896887683e+01 -6.0339083761589499e+01 -6.0290191178314593e+01 -6.0183364375904326e+01 -5.9966155416740200e+01 -5.9745944667821263e+01 -5.7991091695160399e+01 -5.7992267966181082e+01 -5.7992797953672195e+01 -6.0394599031962677e+01
 -6.0386381581264779e+01 -6.0371218600127207e+01 -6.0339082502369365e+01 -6.0290158578607830e+01 -6.0181108233841016e+01 -5.9962212812818173e+01 -5.9741466952339479e+01 -6.0377177747777047e+01 -6.0368959924101539e+01 -6.0353793578677539e+01
 -6.0321643267659454e+01 -6.0271526623804078e+01 -6.0134419669106109e+01 -5.9932790935492427e+01 -5.9725771995955483e+01 -5.7991721352083943e+01 -5.7990370768448081e+01 -6.0394599031962677e+01 -6.0386381581264892e+01 -6.0371218600127420e+01
 -6.0339082502667559e+01 -6.0290158844192462e+01 -6.0181135997379599e+01 -5.9962289388511998e+01 -5.9741588753974341e+01 -6.0377177747777047e+01 -6.0368959924101652e+01 -6.0353793578678868e+01 -6.0321643269693809e+01 -6.0271527466230587e+01
 -6.0134459422991995e+01 -5.9932873832946946e+01 -5.9725895784299830e+01 -5.7992022803309951e+01 -5.7990671280409465e+01 -5.6230372654040480e+01 -5.6230470708307230e+01 -5.6230518435227474e+01 -5.4454988149755714e+01 -5.4454995435939495e+01
 -5.4454996392297012e+01 -5.6230614231303441e+01 -5.6230712369293109e+01 -5.6230760001951239e+01 -5.4455128508198882e+01 -5.4455135790824094e+01 -5.4455136684609251e+01 -5.6230407079230190e+01 -5.6230277947838864e+01 -5.4454979782497112e+01
 -5.4454965709996827e+01 -5.6230648176181745e+01 -5.6230518722460936e+01 -5.4455119941687073e+01 -5.4455105791110924e+01 -5.2664299449117472e+01 -5.2664479070014451e+01 -5.2664299409291715e+01 -5.2664479262286065e+01 -5.2664298540613757e+01
 -5.2664478457308412e+01 -5.0860151307319278e+01 -5.0860217161420131e+01 -5.0860151229303540e+01 -5.0860217089990904e+01 -5.0860150979977043e+01 -5.0860216829435167e+01 -5.2664807387081659e+01 -5.2664807637007769e+01 -5.2664806753402672e+01
 -5.0860355319654410e+01 -5.0860355243979555e+01 -5.0860354957715842e+01 -5.2664296701451072e+01 -5.2664476136455498e+01 -5.2664295611828997e+01 -5.2664474633265606e+01 -5.0860150649712942e+01 -5.0860216454817348e+01 -5.0860150487248532e+01
 -5.0860216262421709e+01 -5.2664804087961372e+01 -5.2664802349101670e+01 -5.0860354537269735e+01 -5.0860354319358905e+01 -4.7206902257481431e+01 -4.7206918632527810e+01 -4.7206902247567804e+01 -4.7206918622345640e+01 -4.7206902221719375e+01
 -4.7206918595255125e+01 -4.7206956863408742e+01 -4.7206956852465837e+01 -4.7206956823110502e+01 -4.7206902193238051e+01 -4.7206918564751525e+01 -4.7206902180632085e+01 -4.7206918551057548e+01 -4.7206956789762422e+01 -4.7206956774710562e+01
 -5.2665063788937545e+01 -5.2665064030800572e+01 -5.2665063075733521e+01 -5.0860472352566745e+01 -5.0860472271274325e+01 -5.0860471966921651e+01 -5.2665132174340286e+01 -5.2665132409942800e+01 -5.2665131431693304e+01 -5.0860501856296736e+01
 -5.0860501772923364e+01 -5.0860501462729253e+01 -5.2665060271293413e+01 -5.2665058452841066e+01 -5.0860471522282666e+01 -5.0860471292448494e+01 -5.2665128593214895e+01 -5.2665126757264645e+01 -5.0860501011125400e+01 -5.0860500778063965e+01
 -4.7206994504886083e+01 -4.7206994493323371e+01 -4.7206994462322172e+01 -4.7207011736640098e+01 -4.7207011724851789e+01 -4.7207011693275192e+01 -4.7206994427122211e+01 -4.7206994411240849e+01 -4.7207011657457045e+01 -4.7207011641306821e+01
 -4.3494109760490559e+01 -4.3494120242656805e+01 -4.3494109759388209e+01 -4.3494120241517756e+01 -4.3494109756645102e+01 -4.3494120238679926e+01 -4.3494148351555594e+01 -4.3494148350348325e+01 -4.3494148347335305e+01 -4.3494109753774381e+01
 -4.3494120235701047e+01 -4.3494109752540936e+01 -4.3494120234420485e+01 -4.3494148344166071e+01 -4.3494148342802362e+01 -3.9721820586100009e+01 -3.9721838527499372e+01 -3.9721820585880607e+01 -3.9721838527274102e+01 -3.9721820585320835e+01
 -3.9721838526705561e+01 -3.9721889254345697e+01 -3.9721889254114238e+01 -3.9721889253531586e+01 -3.9721820584702918e+01 -3.9721838526082713e+01 -3.9721820584420826e+01 -3.9721838525801040e+01 -3.9721889252895252e+01 -3.9721889252608420e+01
 -4.3494185902771974e+01 -4.3494185901508871e+01 -4.3494185898356506e+01 -4.3494223529085218e+01 -4.3494223527793920e+01 -4.3494223524572313e+01 -4.3494185895041632e+01 -4.3494185893615779e+01 -4.3494223521186626e+01 -4.3494223519731023e+01
 -3.9721964186030696e+01 -3.9721964185793006e+01 -3.9721964185195411e+01 -3.9722051081978435e+01 -3.9722051081730385e+01 -3.9722051081107708e+01 -3.9721964184544319e+01 -3.9721964184251505e+01 -3.9722051080431527e+01 -3.9722051080128395e+01
 -3.5889974942676986e+01 -3.5890012733427128e+01 -3.5889974942566212e+01 -3.5890012733313554e+01 -3.5889974942265198e+01 -3.5890012733010032e+01 -3.5890120400950735e+01 -3.5890120400835841e+01 -3.5890120400530101e+01 -3.5889974941897940e+01
 -3.5890012732643640e+01 -3.5889974941713895e+01 -3.5890012732461891e+01 -3.5890120400162466e+01 -3.5890120399980681e+01 -3.1998413944133549e+01 -3.1998494403732487e+01 -3.1998413944349991e+01 -3.1998494403946943e+01 -3.1998413944833526e+01
 -3.1998494404428811e+01 -3.1998724090403147e+01 -3.1998724090616793e+01 -3.1998724091097507e+01 -3.1998413945238983e+01 -3.1998494404835263e+01 -3.1998413945367179e+01 -3.1998494404965292e+01 -3.1998724091503668e+01 -3.1998724091634010e+01
 -3.5890281675668248e+01 -3.5890281675551087e+01 -3.5890281675240132e+01 -3.5890472134835953e+01 -3.5890472134709867e+01 -3.5890472134377340e+01 -3.5890281674867722e+01 -3.5890281674684196e+01 -3.5890472133983522e+01 -3.5890472133791270e+01
 -3.1999069399263359e+01 -3.1999069399474628e+01 -3.1999069399949892e+01 -3.1999479163707605e+01 -3.1999479163908500e+01 -3.1999479164358778e+01 -3.1999069400351122e+01 -3.1999069400479687e+01 -3.1999479164735291e+01 -3.1999479164853874e+01
 -6.0378889853107935e+01 -6.0370672082172746e+01 -6.0394599031962677e+01 -6.0386381596191022e+01 -6.0355506195635947e+01 -6.0371218629295711e+01 -6.0323358036174319e+01 -6.0339082626787686e+01 -6.0273417060476270e+01 -6.0290162310090707e+01
 -6.0138810223512955e+01 -6.0181381205064106e+01 -5.9935933555620345e+01 -5.9962745010281409e+01 -5.9727876646617112e+01 -5.9742130971781499e+01 -6.0394599031962677e+01 -6.0386381733135352e+01 -6.0371218896887413e+01 -6.0339083761206759e+01
 -6.0290190837254627e+01 -6.0183328628251907e+01 -5.9966052979330058e+01 -5.9745779725249520e+01 -5.7990653309622566e+01 -5.7991829318334233e+01 -5.7992359321041747e+01 -6.0378889853107935e+01 -6.0370672082171382e+01 -6.0394599031962677e+01
 -6.0386381596189615e+01 -6.0355506195627953e+01 -6.0371218629293345e+01 -6.0323358024405685e+01 -6.0339082624661067e+01 -6.0273411807467532e+01 -6.0290160421202245e+01 -6.0138541870309702e+01 -6.0181183806810573e+01 -5.9935373573721158e+01
 -5.9962207534279088e+01 -5.9727050519024921e+01 -5.9741291664567186e+01 -6.0394599031962677e+01 -6.0386381733133923e+01 -6.0371218896885047e+01 -6.0339083759142149e+01 -6.0290189002984121e+01 -6.0183136516355532e+01 -5.9965512937919669e+01
 -5.9744930099407107e+01 -5.7989157874602071e+01 -5.7990325337720542e+01 -5.7990850938956356e+01 -6.0394599031962677e+01 -6.0386381581264750e+01 -6.0371218600127150e+01 -6.0339082502265079e+01 -6.0290158485696999e+01 -6.0181098519822029e+01
 -5.9962185855086858e+01 -5.9741423544725848e+01 -6.0377177747777047e+01 -6.0368959924101510e+01 -6.0353793578677092e+01 -6.0321643266932647e+01 -6.0271526322809024e+01 -6.0134405461670333e+01 -5.9932761112100835e+01 -5.9725726926632241e+01
 -5.7991585301205760e+01 -5.7990234543452971e+01 -6.0394599031962677e+01 -6.0386381581263358e+01 -6.0371218600124813e+01 -6.0339082500147200e+01 -6.0290156604709246e+01 -6.0180902006810875e+01 -5.9961652814364690e+01 -5.9740591755197826e+01
 -6.0377177747777047e+01 -6.0368959924100210e+01 -6.0353793578667627e+01 -6.0321643253250500e+01 -6.0271520657442089e+01 -6.0134138244777326e+01 -5.9932208987871356e+01 -5.9724914072521607e+01 -5.7990088427731528e+01 -5.7988749675593255e+01
 -5.6230225830810554e+01 -5.6230323900501546e+01 -5.6230371635960267e+01 -5.4454868071249052e+01 -5.4454875358703205e+01 -5.4454876315186077e+01 -5.6229130020593445e+01 -5.6229226760073125e+01 -5.6229274215301182e+01 -5.4454226999296395e+01
 -5.4454234178827107e+01 -5.4454235285752283e+01 -5.6230260261044734e+01 -5.6230131109677991e+01 -5.4454859702148575e+01 -5.4454845627070455e+01 -5.6229165839423082e+01 -5.6229039204014548e+01 -5.4454219327515325e+01 -5.4454205699532331e+01
 -6.0378889853107935e+01 -6.0370672074694767e+01 -6.0394599031962677e+01 -6.0386381558212435e+01 -6.0355506180972071e+01 -6.0371218555085669e+01 -6.0323357899887064e+01 -6.0339082299854546e+01 -6.0273383139263096e+01 -6.0290143473308390e+01
 -6.0137110316131960e+01 -6.0179704900358644e+01 -5.9932543950848526e+01 -5.9958881505054990e+01 -5.9723078201227921e+01 -5.9736656390995464e+01 -6.0394599031962677e+01 -6.0386381695156132e+01 -6.0371218822675786e+01 -6.0339083434099969e+01
 -6.0290171860650048e+01 -6.0181634596388122e+01 -5.9962035736485234e+01 -5.9740051281611592e+01 -5.7985604823364817e+01 -5.7986667935145718e+01 -5.7987139450662944e+01 -6.0377177747777075e+01 -6.0368959284953995e+01 -6.0377177747777075e+01
 -6.0368959432654165e+01 -6.0353792328246634e+01 -6.0353792617167194e+01 -6.0321637436930445e+01 -6.0321638725428521e+01 -6.0271239897688609e+01 -6.0271281897252678e+01 -6.0123246447400859e+01 -6.0124688072249612e+01 -5.9915011632442663e+01
 -5.9916914355140563e+01 -5.9704266253759663e+01 -5.9706188568134408e+01 -6.0377177747777075e+01 -6.0368959432661057e+01 -6.0353792617195310e+01 -6.0321638742041046e+01 -6.0271288661213525e+01 -6.0125001768866170e+01 -5.9917479879662757e+01
 -5.9706921475930621e+01 -5.7979542875669360e+01 -5.7979835651458323e+01 -5.7979986495282212e+01 -6.0394599031962677e+01 -6.0386381543286390e+01 -6.0371218525917577e+01 -6.0339082175470743e+01 -6.0290139768984339e+01 -6.0179435130487420e+01
 -5.9958369302519095e+01 -5.9736022462855935e+01 -6.0377177747777047e+01 -6.0368959924086063e+01 -6.0353793578598982e+01 -6.0321643183098317e+01 -6.0271491736399256e+01 -6.0132777754675260e+01 -5.9929505482990187e+01 -5.9721095226524888e+01
 -5.7986462660840161e+01 -5.7985247747854977e+01 -6.0377177747777075e+01 -6.0368959432653014e+01 -6.0353792617162398e+01 -6.0321638721420847e+01 -6.0271280250763141e+01 -6.0124611496508656e+01 -5.9916768157812726e+01 -5.9705987824180490e+01
 -6.0377177747777075e+01 -6.0368959268855342e+01 -6.0353792296750782e+01 -6.0321637292689267e+01 -6.0271233783216992e+01 -6.0123020197335940e+01 -5.9914660218495662e+01 -5.9703847871964449e+01 -5.7979723885637164e+01 -5.7979369558842642e+01
 -5.6227282329540088e+01 -5.6227367628491777e+01 -5.6227409194229026e+01 -5.4453358671067626e+01 -5.4453364839419578e+01 -5.4453365711033022e+01 -5.6225500281741581e+01 -5.6225532783556247e+01 -5.6225546313641814e+01 -5.4452780451834080e+01
 -5.4452782989253905e+01 -5.4452781940026924e+01 -5.6227315250131397e+01 -5.6227204119132431e+01 -5.4453351954091879e+01 -5.4453340190466847e+01 -5.6225496172501131e+01 -5.6225447167278261e+01 -5.4452772656592735e+01 -5.4452765733651482e+01
 -5.2664979502043032e+01 -5.2664979743909377e+01 -5.2664978788539855e+01 -5.0860422017070690e+01 -5.0860421935714797e+01 -5.0860421631181971e+01 -5.2664640653640724e+01 -5.2664640903632680e+01 -5.2664640019243997e+01 -5.0860258542093852e+01
 -5.0860258466210091e+01 -5.0860258179352172e+01 -5.2664975983405476e+01 -5.2664974164535096e+01 -5.0860421186326121e+01 -5.0860420956390257e+01 -5.2664637351843410e+01 -5.2664635611770656e+01 -5.0860257758183664e+01 -5.0860257539928483e+01
 -4.7207000393875028e+01 -4.7207000382263786e+01 -4.7207000351141737e+01 -4.7206967142982897e+01 -4.7206967131854071e+01 -4.7206967102023718e+01 -4.7207000315815051e+01 -4.7207000299878978e+01 -4.7206967068154938e+01 -4.7206967052867633e+01
 -5.2664242414848950e+01 -5.2664242607216671e+01 -5.2664241800484533e+01 -5.0860084895743931e+01 -5.0860084823742227e+01 -5.0860084561562957e+01 -5.2664030746043181e+01 -5.2664030705556698e+01 -5.2664029833445156e+01 -5.0860004876403309e+01
 -5.0860004797302217e+01 -5.0860004544929545e+01 -5.2664239475425944e+01 -5.2664237969616664e+01 -5.0860084184945514e+01 -5.0860083991569780e+01 -5.2664027988360012e+01 -5.2664026895372658e+01 -5.0860004210871033e+01 -5.0860004046490133e+01
 -4.7206931200142861e+01 -4.7206931189402404e+01 -4.7206931160832887e+01 -4.7206915426431515e+01 -4.7206915415443675e+01 -4.7206915386645200e+01 -4.7206931128606044e+01 -4.7206931114081108e+01 -4.7206915354516454e+01 -4.7206915340037710e+01
 -4.3494254011983458e+01 -4.3494254010674531e+01 -4.3494254007408564e+01 -4.3494274107114556e+01 -4.3494274105725999e+01 -4.3494274102249456e+01 -4.3494254003975151e+01 -4.3494254002498238e+01 -4.3494274098569996e+01 -4.3494274096973562e+01
 -3.9722136368905282e+01 -3.9722136368622373e+01 -3.9722136367912661e+01 -3.9722207392866586e+01 -3.9722207392454500e+01 -3.9722207391408531e+01 -3.9722136367144579e+01 -3.9722136366801351e+01 -3.9722207390258745e+01 -3.9722207389735331e+01
 -4.3494284419882575e+01 -4.3494284418183121e+01 -4.3494284413849748e+01 -4.3494287401342767e+01 -4.3494287399135693e+01 -4.3494287393315254e+01 -4.3494284409100786e+01 -4.3494284406947379e+01 -4.3494287386535220e+01 -4.3494287383222130e+01
 -3.9722254175262904e+01 -3.9722254174470450e+01 -3.9722254172374953e+01 -3.9722270468988810e+01 -3.9722270467629215e+01 -3.9722270463843650e+01 -3.9722254169912596e+01 -3.9722254168700871e+01 -3.9722270459004370e+01 -3.9722270456385111e+01
 -3.5890662843040019e+01 -3.5890662842877617e+01 -3.5890662842454546e+01 -3.5890824716037990e+01 -3.5890824715742134e+01 -3.5890824714971011e+01 -3.5890662841965245e+01 -3.5890662841731398e+01 -3.5890824714084609e+01 -3.5890824713661438e+01
 -3.1999891631642065e+01 -3.1999891631803322e+01 -3.1999891632155045e+01 -3.2000243468969217e+01 -3.2000243468991812e+01 -3.2000243468981765e+01 -3.1999891632428163e+01 -3.1999891632501896e+01 -3.2000243468840914e+01 -3.2000243468715574e+01
 -3.5890932976447644e+01 -3.5890932975759924e+01 -3.5890932973897385e+01 -3.5890971009726556e+01 -3.5890971008441490e+01 -3.5890971004763969e+01 -3.5890932971618419e+01 -3.5890932970442634e+01 -3.5890970999833797e+01 -3.5890970997006377e+01
 -3.2000479685437504e+01 -3.2000479685057755e+01 -3.2000479683917192e+01 -3.2000562848751741e+01 -3.2000562847747076e+01 -3.2000562844668011e+01 -3.2000479682304096e+01 -3.2000479681356126e+01 -3.2000562840103548e+01 -3.2000562837208058e+01
 -2.8046796143027382e+01 -2.8046966040520186e+01 -2.8046796146871916e+01 -2.8046966044364702e+01 -2.8046796156109163e+01 -2.8046966053604148e+01 -2.8047452166012992e+01 -2.8047452169859344e+01 -2.8047452179103885e+01 -2.8046796165255561e+01
 -2.8046966062754759e+01 -2.8046796168995002e+01 -2.8046966066496974e+01 -2.8047452188260365e+01 -2.8047452192005391e+01 -2.4034405835467584e+01 -2.4034759439249612e+01 -2.4034405880241284e+01 -2.4034759484048553e+01 -2.4034405988300225e+01
 -2.4034759592169983e+01 -2.4035775379340361e+01 -2.4035775424192920e+01 -2.4035775532444386e+01 -2.4034406096275962e+01 -2.4034759700209698e+01 -2.4034406140946857e+01 -2.4034759744907827e+01 -2.4035775640614894e+01 -2.4035775685367557e+01
 -2.8048186175580447e+01 -2.8048186179422313e+01 -2.8048186188656327e+01 -2.8049062254122493e+01 -2.8049062257937958e+01 -2.8049062267108329e+01 -2.8048186197802863e+01 -2.8048186201544105e+01 -2.8049062276191659e+01 -2.8049062279907076e+01
 -2.4037321350234116e+01 -2.4037321395095070e+01 -2.4037321503367156e+01 -2.4039186071429924e+01 -2.4039186116124053e+01 -2.4039186223993571e+01 -2.4037321611558994e+01 -2.4037321656320909e+01 -2.4039186331783441e+01 -2.4039186376379369e+01
 -1.9959771978210984e+01 -1.9960488772925686e+01 -1.9959772484384221e+01 -1.9960489279497612e+01 -1.9959773706893198e+01 -1.9960490502971012e+01 -1.9962563748073066e+01 -1.9962564255546123e+01 -1.9962565481197164e+01 -1.9959774930073728e+01
 -1.9960491727118221e+01 -1.9959775436892198e+01 -1.9960492234337938e+01 -1.9962566707524960e+01 -1.9962567215648896e+01 -1.5819974197137009e+01 -1.5821355806424698e+01 -1.5819979898081622e+01 -1.5821361513060051e+01 -1.5819993680035443e+01
 -1.5821375308791424e+01 -1.5825410194090455e+01 -1.5825415914051451e+01 -1.5825429742015684e+01 -1.5820007488838495e+01 -1.5821389131423121e+01 -1.5820013216618063e+01 -1.5821394864944700e+01 -1.5825443596964641e+01 -1.5825449343896395e+01
 -1.9965766802124083e+01 -1.9965767310211067e+01 -1.9965768537346179e+01 -1.9969706844645152e+01 -1.9969707351606584e+01 -1.9969708576025376e+01 -1.9965769765161038e+01 -1.9965770273902073e+01 -1.9969709801125827e+01 -1.9969710308743540e+01
 -1.5831834673527045e+01 -1.5831840406239955e+01 -1.5831854265047475e+01 -1.5840030301180446e+01 -1.5840036030912271e+01 -1.5840049882572597e+01 -1.5831868150921084e+01 -1.5831873910686339e+01 -1.5840063761371045e+01 -1.5840069518227626e+01
 -1.1609527662224250e+01 -1.1611935665166200e+01 -1.1609591646791523e+01 -1.1611999728436503e+01 -1.1609746746430126e+01 -1.1612155019663389e+01 -1.1619179785579700e+01 -1.1619244031344099e+01 -1.1619399765406451e+01 -1.1609902762066335e+01
 -1.1612311228878459e+01 -1.1609967664012839e+01 -1.1612376211521115e+01 -1.1619556420452446e+01 -1.1619621588585510e+01 -9.4747102848891291e+00 -9.4755190470591550e+00 -9.4750207234299229e+00 -9.4775885372348263e+00 -9.4778994625968664e+00
 -9.4758274638124114e+00 -9.4757783862017355e+00 -9.4786583327350016e+00 -9.4765801046492797e+00 -7.3160859089681347e+00 -7.3173535872410103e+00 -7.3168602462049090e+00 -7.3181285243110370e+00 -7.3192006064138866e+00 -7.3204707732710030e+00
 -7.3204940020804639e+00 -7.3212705491076653e+00 -7.3236176483362172e+00 -9.4813330291996092e+00 -9.4864438723948847e+00 -9.4867558195588355e+00 -9.4816422742803521e+00 -9.4875171892184511e+00 -9.4823969540291149e+00 -7.3232326151810927e+00
 -7.3245049072714448e+00 -7.3290975964596052e+00 -7.3303723192367469e+00 -7.3276571194929900e+00 -7.3335305399798685e+00 -9.4765482699458659e+00 -9.4794294609423080e+00 -9.4773447476769803e+00 -9.4768709656198737e+00 -9.4797526806468895e+00
 -9.4776652018022691e+00 -7.3237573174429409e+00 -7.3245356330286171e+00 -7.3268878991990869e+00 -7.3251485545503536e+00 -7.3259276300492875e+00 -7.3282821028289638e+00 -9.4882908589377415e+00 -9.4831636834787485e+00 -9.4886151424439458e+00
 -9.4834850135075044e+00 -7.3309329506509533e+00 -7.3368125637793327e+00 -7.3323295227608840e+00 -7.3382117506084841e+00 -1.1631221056771489e+01 -1.1631285506662655e+01 -1.1631441735486158e+01 -1.1647652641830611e+01 -1.1647717187795822e+01
 -1.1647873650878095e+01 -1.1631598888054663e+01 -1.1631664263075303e+01 -1.1648031041056880e+01 -1.1648096515500345e+01 -9.4933700637477934e+00 -9.5018183645879262e+00 -9.5021314931456313e+00 -9.4936804162868516e+00 -9.5028957387002979e+00
 -9.4944377945282987e+00 -7.3370315420756400e+00 -7.3383085541566810e+00 -7.3472810231276000e+00 -7.3485607736993739e+00 -7.3414723987752222e+00 -7.3517313475418424e+00 -9.5122107224356771e+00 -9.5241978431090839e+00 -9.5245120846770970e+00
 -9.5125222813067705e+00 -9.5252790537762007e+00 -9.5132825995099939e+00 -7.3601755641987481e+00 -7.3614581977799274e+00 -7.3760194055064980e+00 -7.3773053605966812e+00 -7.3646358771686877e+00 -7.3804912805723193e+00 -9.5036723181338054e+00
 -9.4952072563438730e+00 -9.5039978168328734e+00 -9.4955297276922721e+00 -7.3447601829127160e+00 -7.3550260345292200e+00 -7.3461617953134297e+00 -7.3564305588725940e+00 -9.5260584102330625e+00 -9.5140550414062002e+00 -9.5263850753745007e+00
 -9.5143787591780722e+00 -7.3679378861331069e+00 -7.3838018621878776e+00 -7.3693455096124962e+00 -7.3852131388459945e+00 -5.1262720060354985e+00 -5.1269377255474895e+00 -5.1311426053984137e+00 -5.1318119475214923e+00 -5.1290313436094959e+00
 -5.1339143081566974e+00 -5.1436522373633524e+00 -5.1443331458382513e+00 -5.1464605707858491e+00 -2.8772076435123362e+00 -2.8771502432599161e+00 -2.8814006801039054e+00 -2.8772620167346461e+00 -2.8937828893582522e+00 -2.8813467236779360e+00
 -2.8938973546841034e+00 -2.8814555584792694e+00 -2.8938354526338568e+00 -2.8776201032514166e+00 -2.8818148960823282e+00 -2.8781735521032594e+00 -2.8948414108380747e+00 -2.8823737279709798e+00 -2.8942665735766639e+00 -2.9142440066956752e+00
 -2.9412721829657378e+00 -2.9141894706460381e+00 -2.9414789280081677e+00 -2.9143363924745582e+00 -2.9413316604526729e+00 -2.9147280294741567e+00 -2.9425739061468215e+00 -2.9153400595891870e+00 -2.9419043696225793e+00 -5.1327685713527869e+00
 -5.1376613449357702e+00 -5.1384242780489826e+00 -5.1433261324251243e+00 -5.1502336094925907e+00 -5.1559215230222755e+00 -2.8791746680250174e+00 -2.8833784686495698e+00 -2.8804622606221439e+00 -2.8971673858646656e+00 -2.8846717665087040e+00
 -2.8958592876007700e+00 -2.8822665464334798e+00 -2.8864790454518019e+00 -2.8844202429877250e+00 -2.9011552459077001e+00 -2.8886377047148968e+00 -2.8989847900492935e+00 -2.9163774780347294e+00 -2.9450165066788827e+00 -2.9177157369132796e+00
 -2.9436345576492045e+00 -2.9195451970123281e+00 -2.9490865925679004e+00 -2.9217400196458305e+00 -2.9468568908384691e+00 -5.1573747527843459e+00 -5.1580696630276588e+00 -5.1602259848309231e+00 -5.1634700383377679e+00 -5.1641710472168798e+00
 -5.1663399675060004e+00 -2.9723805907408525e+00 -3.0022599865115227e+00 -2.9723193682032631e+00 -3.0026124143106769e+00 -2.9726050505565866e+00 -3.0023119410813259e+00 -2.9730644789231788e+00 -3.0039151298004141e+00 -2.9738098204399024e+00
 -3.0030930729721033e+00 -3.0244813304725389e+00 -3.0328000295190032e+00 -3.0244421005196269e+00 -3.0332116947816870e+00 -3.0248387596708155e+00 -3.0328313493112935e+00 -3.0253280525750221e+00 -3.0346043466842758e+00 -3.0262084680330972e+00
 -3.0337003520119552e+00 -5.1640276067244271e+00 -5.1697401920355999e+00 -5.1701539791403954e+00 -5.1758771880205217e+00 -2.9748883666709309e+00 -3.0065013448878228e+00 -2.9763280806477477e+00 -3.0050011884279964e+00 -2.9781713864951036e+00
 -3.0106670479758639e+00 -2.9804487913786830e+00 -3.0083384731941352e+00 -3.0272944877106061e+00 -3.0372545939824764e+00 -3.0288422343671848e+00 -3.0356869389508616e+00 -3.0306701082830854e+00 -3.0414634519827595e+00 -3.0330401094920281e+00
 -3.0390758071136648e+00 -1.6954764194781056e+00 -1.7012920858676397e+00 -1.6959727594038456e+00 -1.7018812781408310e+00 -1.6947093471352330e+00 -1.7004555031117881e+00 -1.7210797441336261e+00 -1.7204330195684949e+00 -1.7195426733580181e+00
 -4.6778448653705856e-01 -4.6458943542847164e-01 -4.7025622321301652e-01 -4.6515862571367950e-01 -4.6146947211346445e-01 -4.6120176038370736e-01 -4.8625161224941799e-01 -4.8036719116328741e-01 -4.7573549332807757e-01 -1.6941934245427650e+00
 -1.6999129882613970e+00 -1.6940865090462964e+00 -1.6998018688895633e+00 -1.7189886168561930e+00 -1.7188908955447642e+00 -4.5966084907468807e-01 -4.5914788035047965e-01 -4.5883948795764978e-01 -4.5826703088088838e-01 -4.7344352223462227e-01
 -4.7251014676168268e-01 -1.7555550840847798e+00 -1.7561745662770656e+00 -1.7547283388968185e+00 -1.8100115550838896e+00 -1.8095255101759016e+00 -1.8089112192369130e+00 -5.2443349427530073e-01 -5.1858840861539457e-01 -5.1403902210760877e-01
 -6.0061748070126320e-01 -5.9576115886021830e-01 -5.9219000897437835e-01 -1.7542463550512484e+00 -1.7542136030154456e+00 -1.8086068941994051e+00 -1.8087014441556781e+00 -5.1184319095888409e-01 -5.1098855613105665e-01 -5.9051931951925141e-01
 -5.8991981743505018e-01 -1.6110566267481566e-01 -1.5557337301936583e-01 -1.5973377490019872e-01 -1.4576858521493857e-01 1.4072817837544338e-01 1.4767179924471743e-01 1.4544712586504199e-01 1.7754047927797637e-01 3.7136200135263492e-01
 3.7167916960417624e-01 3.7163212766645193e-01 3.8837062313233606e-01 4.2333597564551478e-01 4.2335351429363255e-01 4.2335340887836703e-01 4.3840577416779181e-01 -1.5213865670952711e-01 -1.4045394762806993e-01 1.5040992758609417e-01
 1.8300328617684614e-01 3.7173840414893944e-01 3.8847123125626692e-01 4.2335366172991701e-01 4.3841042462962637e-01 -1.7049764861057209e-01 -1.5469076597032078e-01 1.4052393570573715e-01 1.7535402635225691e-01 3.7152994702829056e-01