DF-ISE text

Info {
  version = 1.0
  type    = dataset
  dimension   = 3
  nb_vertices = 5293
  nb_edges    = 23303
  nb_faces    = 30690
  nb_elements = 12980
  nb_regions  = 3
  datasets    = [ "ElectrostaticPotential" "ContactExternalVoltage" "ContactCurrentFlux" "ContactCharge" "eQuasiFermiPotential" "hQuasiFermiPotential" "QuasiFermiPotential" "LatticeTemperature" ]
  functions   = [ ElectrostaticPotential ContactExternalVoltage ContactCurrentFlux ContactCharge eQuasiFermiPotential hQuasiFermiPotential QuasiFermiPotential LatticeTemperature ]
}

Data {

  Dataset ("ElectrostaticPotential") {
    function  = ElectrostaticPotential
    type      = scalar
    dimension = 1
    location  = vertex
    validity  = [ "substrate" ]
    Values (5293) {
 -2.2537888985310792e+02 -2.2537067152405530e+02 -2.2537888985310792e+02 -2.2537888985310792e+02 -2.2537067207185029e+02 -2.2537067166099993e+02 -2.2539459903196263e+02 -2.2538638155161510e+02 -2.2535550508956578e+02 -2.2535550616176448e+02
 -2.2535550535753387e+02 -2.2537121854980151e+02 -2.2532330864208754e+02 -2.2532331475989594e+02 -2.2532331005062849e+02 -2.2533907405769153e+02 -2.2525335983012263e+02 -2.2525411505304433e+02 -2.2525349488987629e+02 -2.2528278210151120e+02
 -2.2444766844333566e+02 -2.2446119280627397e+02 -2.2444981283296403e+02 -2.2452071790600323e+02 -2.2357537402930879e+02 -2.2359509487272896e+02 -2.2357810470644398e+02 -2.2363158723996679e+02 -2.2270026492056292e+02 -2.2272282404189625e+02
 -2.2270298511980724e+02 -2.2274168678274705e+02 -2.2537888985310792e+02 -2.2537067166100348e+02 -2.2539459903196263e+02 -2.2538638168855320e+02 -2.2535550535757594e+02 -2.2537121881740194e+02 -2.2532331010272068e+02 -2.2533907524871077e+02
 -2.2525351798451834e+02 -2.2528285855509651e+02 -2.2445032432458231e+02 -2.2452477462887711e+02 -2.2357896413922171e+02 -2.2363675554168685e+02 -2.2270406350127726e+02 -2.2274677365223675e+02 -2.1565277910727789e+02 -2.1566039809955819e+02
 -2.1565319011079160e+02 -2.1566188107771330e+02 -2.1565340134247339e+02 -2.1566255306612399e+02 -2.2537888985310792e+02 -2.2537067207185393e+02 -2.2539459903196263e+02 -2.2538638158585115e+02 -2.2535550616189411e+02 -2.2537121861671594e+02
 -2.2532331497309184e+02 -2.2533907438661038e+02 -2.2525420995001443e+02 -2.2528282886377175e+02 -2.2446337042399770e+02 -2.2452382404088090e+02 -2.2359908884662133e+02 -2.2363677915078375e+02 -2.2272828792174295e+02 -2.2274832908892057e+02
 -2.2539459903196263e+02 -2.2538638172278962e+02 -2.2537121888431867e+02 -2.2533907558056711e+02 -2.2528290792638677e+02 -2.2452809509601170e+02 -2.2364230987272404e+02 -2.2275386878294267e+02 -2.1566509034752050e+02 -2.1566673770588926e+02
 -2.1566749602221927e+02 -2.2537888985310792e+02 -2.2537067166099956e+02 -2.2539459903196263e+02 -2.2538638153669027e+02 -2.2535550535752495e+02 -2.2537121852063183e+02 -2.2532331003694384e+02 -2.2533907392343517e+02 -2.2525348880605094e+02
 -2.2528277024286086e+02 -2.2444967759555843e+02 -2.2452009474661648e+02 -2.2357786177275833e+02 -2.2363067456743423e+02 -2.2270265970521069e+02 -2.2274064619890936e+02 -2.2537888985310792e+02 -2.2537067150912964e+02 -2.2537717774777701e+02
 -2.2536895992183003e+02 -2.2535550506034659e+02 -2.2535379355301055e+02 -2.2532330846985312e+02 -2.2532159034921298e+02 -2.2525333699472642e+02 -2.2524961234336229e+02 -2.2444729861288397e+02 -2.2445468838334628e+02 -2.2357481958570574e+02
 -2.2359053900221610e+02 -2.2269961196968916e+02 -2.2271982047747045e+02 -2.1565301418864681e+02 -2.1566155786713549e+02 -2.1565250862628648e+02 -2.1565984684814566e+02 -2.2539459903196263e+02 -2.2538638157092623e+02 -2.2537121858754574e+02
 -2.2533907425165125e+02 -2.2528281638082919e+02 -2.2452315097108655e+02 -2.2363577632439060e+02 -2.2274716841058250e+02 -2.2537717774777701e+02 -2.2536895991378569e+02 -2.2535379353742866e+02 -2.2532159053174595e+02 -2.2524971459634807e+02
 -2.2445671996129124e+02 -2.2359431294077146e+02 -2.2272503001753014e+02 -2.1566636261047688e+02 -2.1566445674655299e+02 -2.0857191407744267e+02 -2.0857418187245810e+02 -2.0857195905144533e+02 -2.0857430046669705e+02 -2.0857197607485548e+02
 -2.0857435679373367e+02 -2.0147130045461509e+02 -2.0147203568481257e+02 -2.0147130375306367e+02 -2.0147204402684881e+02 -2.0147130156616663e+02 -2.0147204442075611e+02 -2.0857657766317641e+02 -2.0857671356875284e+02 -2.0857677869448139e+02
 -2.0147313765224709e+02 -2.0147314747528054e+02 -2.0147314814184787e+02 -2.0857190174642872e+02 -2.0857421854779975e+02 -2.0857183113829964e+02 -2.0857406018839561e+02 -2.0147128761038337e+02 -2.0147202389903865e+02 -2.0147127747607365e+02
 -2.0147200685593941e+02 -2.0857661792263687e+02 -2.0857643582694473e+02 -2.0147312420832640e+02 -2.0147310432928967e+02 -2.2537888985310792e+02 -2.2537067207185393e+02 -2.2539459903196263e+02 -2.2538638158585124e+02 -2.2535550616191790e+02
 -2.2537121861671815e+02 -2.2532331501686517e+02 -2.2533907439360786e+02 -2.2525422945823598e+02 -2.2528283509256281e+02 -2.2446382049202268e+02 -2.2452429816364182e+02 -2.2359994526934577e+02 -2.2363768686315487e+02 -2.2272950626867689e+02
 -2.2274961682936484e+02 -2.2539459903196263e+02 -2.2538638172278971e+02 -2.2537121888432088e+02 -2.2533907558772580e+02 -2.2528291430145279e+02 -2.2452858286883239e+02 -2.2364324322075117e+02 -2.2275519155135254e+02 -2.1566706563486463e+02
 -2.1566873005268039e+02 -2.1566949725426022e+02 -2.2537888985310792e+02 -2.2537067207185393e+02 -2.2539459903196263e+02 -2.2538638158585124e+02 -2.2535550616192211e+02 -2.2537121861671841e+02 -2.2532331502456066e+02 -2.2533907439477528e+02
 -2.2525423288794164e+02 -2.2528283613247697e+02 -2.2446389969905337e+02 -2.2452437737194046e+02 -2.2360009737503455e+02 -2.2363784093136132e+02 -2.2272972562926770e+02 -2.2274983967641759e+02 -2.2539459903196263e+02 -2.2538638172278971e+02
 -2.2537121888432119e+02 -2.2533907558889717e+02 -2.2528291534538675e+02 -2.2452866280423333e+02 -2.2364339873357670e+02 -2.2275541644952511e+02 -2.1566753705198556e+02 -2.1566920280104563e+02 -2.1566997047314740e+02 -2.2539459903196263e+02
 -2.2538638157092632e+02 -2.2537121858754790e+02 -2.2533907425857191e+02 -2.2528282254035685e+02 -2.2452361934049546e+02 -2.2363667299828825e+02 -2.2274844065034591e+02 -2.2537717774777701e+02 -2.2536895991378569e+02 -2.2535379353746106e+02
 -2.2532159058716422e+02 -2.2524973749474640e+02 -2.2445716189218484e+02 -2.2359515143696373e+02 -2.2272622269021056e+02 -2.1566834284762143e+02 -2.1566641418028473e+02 -2.2539459903196263e+02 -2.2538638157092632e+02 -2.2537121858754821e+02
 -2.2533907425973177e+02 -2.2528282357338625e+02 -2.2452369794029920e+02 -2.2363682587525315e+02 -2.2274866179109191e+02 -2.2537717774777701e+02 -2.2536895991378569e+02 -2.2535379353746680e+02 -2.2532159059702121e+02 -2.2524974156747970e+02
 -2.2445724056841888e+02 -2.2359530195297373e+02 -2.2272643956031945e+02 -2.1566881356028230e+02 -2.1566688267475993e+02 -2.0857796032495753e+02 -2.0857809853571942e+02 -2.0857816419983828e+02 -2.0147391008997002e+02 -2.0147392008683784e+02
 -2.0147392050660363e+02 -2.0857832901482070e+02 -2.0857846741037025e+02 -2.0857853295121657e+02 -2.0147412436861998e+02 -2.0147413436249562e+02 -2.0147413468244781e+02 -2.0857799840951216e+02 -2.0857781206899998e+02 -2.0147389551011634e+02
 -2.0147387490678994e+02 -2.0857836634860234e+02 -2.0857817942888269e+02 -2.0147410946665605e+02 -2.0147408873333893e+02 -1.9435433676575229e+02 -1.9435460280558866e+02 -1.9435433663047681e+02 -1.9435460298690396e+02 -1.9435433520605943e+02
 -1.9435460162604045e+02 -1.8722198885425200e+02 -1.8722208872738008e+02 -1.8722198872646689e+02 -1.8722208860732815e+02 -1.8722198833115002e+02 -1.8722208819219500e+02 -1.9435509536871663e+02 -1.9435509562658814e+02 -1.9435509412817629e+02
 -1.8722230090781579e+02 -1.8722230077990292e+02 -1.8722230032299763e+02 -1.9435433239412529e+02 -1.9435459809820509e+02 -1.9435433076353652e+02 -1.9435459586908843e+02 -1.8722198782019979e+02 -1.8722208761407995e+02 -1.8722198757198959e+02
 -1.8722208732165450e+02 -1.9435509006661133e+02 -1.9435508747907767e+02 -1.8722229967332842e+02 -1.8722229934164065e+02 -1.7291213715717186e+02 -1.7291216682812868e+02 -1.7291213714160091e+02 -1.7291216681208306e+02 -1.7291213710127289e+02
 -1.7291216676975537e+02 -1.7291223889832321e+02 -1.7291223888104091e+02 -1.7291223883509602e+02 -1.7291213705715739e+02 -1.7291216672251718e+02 -1.7291213703769549e+02 -1.7291216670140116e+02 -1.7291223878338468e+02 -1.7291223876015093e+02
 -1.9435548482107359e+02 -1.9435548506431061e+02 -1.9435548344956973e+02 -1.8722248524006508e+02 -1.8722248510296859e+02 -1.8722248461694954e+02 -1.9435559341448067e+02 -1.9435559364767531e+02 -1.9435559199553293e+02 -1.8722254025803218e+02
 -1.8722254011758579e+02 -1.8722253962218588e+02 -1.9435547916636841e+02 -1.9435547645280803e+02 -1.8722248392879683e+02 -1.8722248357825501e+02 -1.9435558765729635e+02 -1.9435558491541073e+02 -1.8722253892287685e+02 -1.8722253856717327e+02
 -1.7291231760905802e+02 -1.7291231759078028e+02 -1.7291231754220507e+02 -1.7291236984323541e+02 -1.7291236982459978e+02 -1.7291236977511264e+02 -1.7291231748755038e+02 -1.7291231746300278e+02 -1.7291236971947944e+02 -1.7291236969450682e+02
 -1.5854263560479271e+02 -1.5854266285947247e+02 -1.5854263560319097e+02 -1.5854266285781583e+02 -1.5854263559920554e+02 -1.5854266285368413e+02 -1.5854273789378203e+02 -1.5854273789201747e+02 -1.5854273788760850e+02 -1.5854263559501737e+02
 -1.5854266284932524e+02 -1.5854263559318528e+02 -1.5854266284741638e+02 -1.5854273788294876e+02 -1.5854273788090828e+02 -1.4411350302345767e+02 -1.4411355478254379e+02 -1.4411350302325013e+02 -1.4411355478232989e+02 -1.4411350302271043e+02
 -1.4411355478177998e+02 -1.4411370168228635e+02 -1.4411370168206349e+02 -1.4411370168149219e+02 -1.4411350302207686e+02 -1.4411355478113779e+02 -1.4411350302174637e+02 -1.4411355478080549e+02 -1.4411370168082846e+02 -1.4411370168048725e+02
 -1.5854284348325334e+02 -1.5854284348140013e+02 -1.5854284347677006e+02 -1.5854295811758038e+02 -1.5854295811568545e+02 -1.5854295811095270e+02 -1.5854284347187942e+02 -1.5854284346974055e+02 -1.5854295810595664e+02 -1.5854295810377363e+02
 -1.4411392019455954e+02 -1.4411392019432716e+02 -1.4411392019373278e+02 -1.4411417592602979e+02 -1.4411417592578405e+02 -1.4411417592515681e+02 -1.4411392019304591e+02 -1.4411392019269528e+02 -1.4411417592443661e+02 -1.4411417592407244e+02
 -1.2962454327652324e+02 -1.2962465305029738e+02 -1.2962454327652361e+02 -1.2962465305029534e+02 -1.2962454327648740e+02 -1.2962465305025830e+02 -1.2962496592825548e+02 -1.2962496592825201e+02 -1.2962496592821236e+02 -1.2962454327635709e+02
 -1.2962465305012941e+02 -1.2962454327623129e+02 -1.2962465305000589e+02 -1.2962496592808125e+02 -1.2962496592795705e+02 -1.1507529218312702e+02 -1.1507552574514655e+02 -1.1507529218402857e+02 -1.1507552574604624e+02 -1.1507529218616720e+02
 -1.1507552574818509e+02 -1.1507619249505512e+02 -1.1507619249595409e+02 -1.1507619249809177e+02 -1.1507529218820804e+02 -1.1507552575022832e+02 -1.1507529218897653e+02 -1.1507552575099919e+02 -1.1507619250013435e+02 -1.1507619250090521e+02
 -1.2962543493697325e+02 -1.2962543493696651e+02 -1.2962543493691894e+02 -1.2962598935363255e+02 -1.2962598935361436e+02 -1.2962598935353870e+02 -1.2962543493678018e+02 -1.2962543493665308e+02 -1.2962598935337147e+02 -1.2962598935323288e+02
 -1.1507719489160198e+02 -1.1507719489249702e+02 -1.1507719489462536e+02 -1.1507838440872862e+02 -1.1507838440960823e+02 -1.1507838441169888e+02 -1.1507719489665888e+02 -1.1507719489742627e+02 -1.1507838441369431e+02 -1.1507838441444629e+02
 -2.2537888985310792e+02 -2.2537067207185393e+02 -2.2539459903196263e+02 -2.2538638158585124e+02 -2.2535550616191640e+02 -2.2537121861671801e+02 -2.2532331501412446e+02 -2.2533907439320029e+02 -2.2525422823674629e+02 -2.2528283472948857e+02
 -2.2446379226962142e+02 -2.2452427050493702e+02 -2.2359989066393229e+02 -2.2363763261493125e+02 -2.2272942652548002e+02 -2.2274953729047962e+02 -2.2539459903196263e+02 -2.2538638172278971e+02 -2.2537121888432077e+02 -2.2533907558732116e+02
 -2.2528291394084965e+02 -2.2452855525171879e+02 -2.2364318902608107e+02 -2.2275511206641903e+02 -2.1566684873271808e+02 -2.1566851316890381e+02 -2.1566928037410031e+02 -2.2537888985310792e+02 -2.2537067207185387e+02 -2.2539459903196263e+02
 -2.2538638158585115e+02 -2.2535550616188866e+02 -2.2537121861671551e+02 -2.2532331496330491e+02 -2.2533907438515828e+02 -2.2525420558941016e+02 -2.2528282757078276e+02 -2.2446326992407293e+02 -2.2452372562075382e+02 -2.2359889708365304e+02
 -2.2363658874204401e+02 -2.2272801312386665e+02 -2.2274805509189770e+02 -2.2539459903196263e+02 -2.2538638172278962e+02 -2.2537121888431824e+02 -2.2533907557912576e+02 -2.2528290664238767e+02 -2.2452799683811298e+02 -2.2364211967744129e+02
 -2.2275359500532048e+02 -2.1566452872172161e+02 -2.1566617615419162e+02 -2.1566693449084642e+02 -2.2539459903196263e+02 -2.2538638157092632e+02 -2.2537121858754782e+02 -2.2533907425816344e+02 -2.2528282217656752e+02 -2.2452359165763161e+02
 -2.2363661871197701e+02 -2.2274836106491864e+02 -2.2537717774777701e+02 -2.2536895991378569e+02 -2.2535379353745893e+02 -2.2532159058360637e+02 -2.2524973602467625e+02 -2.2445713347980944e+02 -2.2359509668448732e+02 -2.2272614283328221e+02
 -2.1566812594178379e+02 -2.1566619724344750e+02 -2.2539459903196263e+02 -2.2538638157092623e+02 -2.2537121858754531e+02 -2.2533907425019603e+02 -2.2528281508523057e+02 -2.2452305246030195e+02 -2.2363558577269063e+02 -2.2274689423931457e+02
 -2.2537717774777701e+02 -2.2536895991378569e+02 -2.2535379353742104e+02 -2.2532159051903227e+02 -2.2524970934467561e+02 -2.2445661875939587e+02 -2.2359412062497503e+02 -2.2272475478821059e+02 -2.1566580098681632e+02 -2.1566389500548399e+02
 -2.0857773393842510e+02 -2.0857787215023018e+02 -2.0857793781271067e+02 -2.0147373178616920e+02 -2.0147374178284551e+02 -2.0147374220169735e+02 -2.0857606731466478e+02 -2.0857620322530988e+02 -2.0857626834776997e+02 -2.0147276652671903e+02
 -2.0147277634944081e+02 -2.0147277701364914e+02 -2.0857777201656964e+02 -2.0857758567167306e+02 -2.0147371720375705e+02 -2.0147369659962197e+02 -2.0857610755737244e+02 -2.0857592544658490e+02 -2.0147275307585716e+02 -2.0147273319427899e+02
 -2.2537888985310792e+02 -2.2537067206438709e+02 -2.2539459903196263e+02 -2.2538638154788362e+02 -2.2535550614713679e+02 -2.2537121854250665e+02 -2.2532331464326359e+02 -2.2533907401909124e+02 -2.2525409005145858e+02 -2.2528277467893878e+02
 -2.2446069130879866e+02 -2.2452022752920456e+02 -2.2359422851781727e+02 -2.2363072761282478e+02 -2.2272167675801575e+02 -2.2274054305069498e+02 -2.2539459903196263e+02 -2.2538638168482174e+02 -2.2537121881010731e+02 -2.2533907521017446e+02
 -2.2528285118262482e+02 -2.2452428505378541e+02 -2.2363589690261398e+02 -2.2274563086991176e+02 -2.1565915305218920e+02 -2.1566063631038594e+02 -2.1566130839574654e+02 -2.2537717774777707e+02 -2.2536895927470286e+02 -2.2537717774777707e+02
 -2.2536895942239488e+02 -2.2535379228585663e+02 -2.2535379257494631e+02 -2.2532158264988689e+02 -2.2532158423906534e+02 -2.2524859150824528e+02 -2.2524875537678156e+02 -2.2443953212255659e+02 -2.2444169472765384e+02 -2.2356840783921584e+02
 -2.2357114951291388e+02 -2.2269439510441464e+02 -2.2269712107716359e+02 -2.2537717774777707e+02 -2.2536895942239894e+02 -2.2535379257500193e+02 -2.2532158430750556e+02 -2.2524878352159192e+02 -2.2444221042266639e+02 -2.2357201213640047e+02
 -2.2269820168633296e+02 -2.1565038788461595e+02 -2.1565079933580645e+02 -2.1565101076725907e+02 -2.2539459903196263e+02 -2.2538638153295875e+02 -2.2537121851333694e+02 -2.2533907388481850e+02 -2.2528276280733320e+02 -2.2451960400773083e+02
 -2.2362981441515865e+02 -2.2273950187014688e+02 -2.2537717774777701e+02 -2.2536895991378114e+02 -2.2535379353722320e+02 -2.2532159021112597e+02 -2.2524958226770994e+02 -2.2445418333881241e+02 -2.2358967018668841e+02 -2.2271867155155519e+02
 -2.1566031291565372e+02 -2.1565860149163419e+02 -2.2537717774777707e+02 -2.2536895942239437e+02 -2.2535379257493395e+02 -2.2532158422106673e+02 -2.2524874795734644e+02 -2.2444155824129189e+02 -2.2357090546278511e+02 -2.2269679468987914e+02
 -2.2537717774777707e+02 -2.2536895925860566e+02 -2.2535379225433061e+02 -2.2532158245211457e+02 -2.2524856372753004e+02 -2.2443915862232163e+02 -2.2356785069589330e+02 -2.2269374022007946e+02 -2.1565062316057319e+02 -2.1565011700523857e+02
 -2.0857329957581840e+02 -2.0857341818940913e+02 -2.0857347451488624e+02 -2.0147147029849486e+02 -2.0147147864049703e+02 -2.0147147902978406e+02 -2.0857070551909038e+02 -2.0857075052396752e+02 -2.0857076754948102e+02 -2.0147062179297609e+02
 -2.0147062509129526e+02 -2.0147062289677396e+02 -2.0857333622227435e+02 -2.0857317782008477e+02 -2.0147145849796919e+02 -2.0147144144809360e+02 -2.0857069315061176e+02 -2.0857062247723735e+02 -2.0147060892284975e+02 -2.0147059877403598e+02
 -1.9435536911947827e+02 -1.9435536936257836e+02 -1.9435536774745299e+02 -1.8722243119949007e+02 -1.8722243106231753e+02 -1.8722243057610581e+02 -1.9435486490782162e+02 -1.9435486516531071e+02 -1.9435486366577277e+02 -1.8722219535488480e+02
 -1.8722219522671372e+02 -1.8722219476913074e+02 -1.9435536346379516e+02 -1.9435536075002042e+02 -1.8722242988774639e+02 -1.8722242953711358e+02 -1.9435485960278837e+02 -1.9435485701453590e+02 -1.8722219411867940e+02 -1.8722219378660222e+02
 -1.7291237930773744e+02 -1.7291237928940410e+02 -1.7291237924068957e+02 -1.7291235199572529e+02 -1.7291235197822911e+02 -1.7291235193172540e+02 -1.7291237918588675e+02 -1.7291237916127420e+02 -1.7291235187936655e+02 -1.7291235185580382e+02
 -1.9435427334521324e+02 -1.9435427352563275e+02 -1.9435427216193310e+02 -1.8722194205277938e+02 -1.8722194193197805e+02 -1.8722194151472860e+02 -1.9435396145404022e+02 -1.9435396131701600e+02 -1.9435395988663785e+02 -1.8722182520659979e+02
 -1.8722182507719054e+02 -1.8722182467671647e+02 -1.9435426863006731e+02 -1.9435426639844258e+02 -1.8722194093375390e+02 -1.8722194063945386e+02 -1.9435395706445939e+02 -1.9435395542491113e+02 -1.8722182415689684e+02 -1.8722182390032489e+02
 -1.7291231329961926e+02 -1.7291231328289010e+02 -1.7291231323863050e+02 -1.7291229504674857e+02 -1.7291229502962508e+02 -1.7291229498433253e+02 -1.7291231318874429e+02 -1.7291231316583082e+02 -1.7291229493147929e+02 -1.7291229490341422e+02
 -1.5854306212285195e+02 -1.5854306212094525e+02 -1.5854306211618112e+02 -1.5854314174724141e+02 -1.5854314174526752e+02 -1.5854314174031120e+02 -1.5854306211114783e+02 -1.5854306210894651e+02 -1.5854314173501575e+02 -1.5854314173265084e+02
 -1.4411442947979677e+02 -1.4411442947951113e+02 -1.4411442947878302e+02 -1.4411464270153633e+02 -1.4411464270110460e+02 -1.4411464269998694e+02 -1.4411442947795391e+02 -1.4411442947754114e+02 -1.4411464269868833e+02 -1.4411464269802266e+02
 -1.5854319032611465e+02 -1.5854319032378160e+02 -1.5854319031773483e+02 -1.5854320643720237e+02 -1.5854320643405489e+02 -1.5854320642510314e+02 -1.5854319031073635e+02 -1.5854319030700518e+02 -1.5854320641203736e+02 -1.5854320640110916e+02
 -1.4411478425877092e+02 -1.4411478425788161e+02 -1.4411478425541779e+02 -1.4411483378552430e+02 -1.4411483378377099e+02 -1.4411483377824720e+02 -1.4411478425212852e+02 -1.4411478424994212e+02 -1.4411483376857868e+02 -1.4411483375861113e+02
 -1.2962654507450972e+02 -1.2962654507444856e+02 -1.2962654507426450e+02 -1.2962701722842951e+02 -1.2962701722821498e+02 -1.2962701722762355e+02 -1.2962654507398079e+02 -1.2962654507379060e+02 -1.2962701722685210e+02 -1.2962701722640085e+02
 -1.1507958178283378e+02 -1.1507958178366098e+02 -1.1507958178562045e+02 -1.1508060315421723e+02 -1.1508060315487646e+02 -1.1508060315639311e+02 -1.1507958178747666e+02 -1.1507958178816767e+02 -1.1508060315772603e+02 -1.1508060315814099e+02
 -1.2962733324535566e+02 -1.2962733324467530e+02 -1.2962733324271662e+02 -1.2962744431565145e+02 -1.2962744431410215e+02 -1.2962744430905636e+02 -1.2962733323992501e+02 -1.2962733323791264e+02 -1.2962744429972821e+02 -1.2962744428937992e+02
 -1.1508128888704034e+02 -1.1508128888721912e+02 -1.1508128888733260e+02 -1.1508153031271607e+02 -1.1508153031201876e+02 -1.1508153030901516e+02 -1.1508128888660269e+02 -1.1508128888541128e+02 -1.1508153030159154e+02 -1.1508153029146303e+02
 -1.0046475935182987e+02 -1.0046525244678134e+02 -1.0046475936276701e+02 -1.0046525245771961e+02 -1.0046475938913400e+02 -1.0046525248409358e+02 -1.0046666323366507e+02 -1.0046666324460774e+02 -1.0046666327099294e+02 -1.0046475941540101e+02
 -1.0046525251036968e+02 -1.0046475942619932e+02 -1.0046525252117291e+02 -1.0046666329728077e+02 -1.0046666330808911e+02 -8.5790868141448968e+01 -8.5791894761213854e+01 -8.5790868265574147e+01 -8.5791894885384337e+01 -8.5790868565240245e+01
 -8.5791895185163654e+01 -8.5794843945222823e+01 -8.5794844069503299e+01 -8.5794844369548898e+01 -8.5790868864859092e+01 -8.5791895484897864e+01 -8.5790868988894317e+01 -8.5791895608981790e+01 -8.5794844669549917e+01 -8.5794844793744574e+01
 -1.0046879312240983e+02 -1.0046879313334405e+02 -1.0046879315970895e+02 -1.0047133479492450e+02 -1.0047133480580435e+02 -1.0047133483203756e+02 -1.0046879318597675e+02 -1.0046879319677711e+02 -1.0047133485817332e+02 -1.0047133486891940e+02
 -8.5799330598820859e+01 -8.5799330723140756e+01 -8.5799331023281653e+01 -8.5804740382209346e+01 -8.5804740506164080e+01 -8.5804740805422995e+01 -8.5799331323378354e+01 -8.5799331447613042e+01 -8.5804741104637401e+01 -8.5804741228507098e+01
 -7.1049346674888824e+01 -7.1051429519205698e+01 -7.1049348075228323e+01 -7.1051430920193113e+01 -7.1049351457296567e+01 -7.1051434303829765e+01 -7.1057457475462243e+01 -7.1057458878232396e+01 -7.1057462266175222e+01 -7.1049354841240572e+01
 -7.1051437689345079e+01 -7.1049356243409235e+01 -7.1051439092165495e+01 -7.1057465655999479e+01 -7.1057467060605546e+01 -5.6231704260248769e+01 -5.6235725615220638e+01 -5.6231720034849062e+01 -5.6235741397804851e+01 -5.6231758164965527e+01
 -5.6235779547224396e+01 -5.6247521453791485e+01 -5.6247537261017534e+01 -5.6247575469985279e+01 -5.6231796362405539e+01 -5.6235817763999876e+01 -5.6231812204301427e+01 -5.6235833613912625e+01 -5.6247613746385028e+01 -5.6247629621015676e+01
 -7.1066758251894370e+01 -7.1066759656455019e+01 -7.1066763048723445e+01 -7.1078191537341226e+01 -7.1078192939964765e+01 -7.1078196327558203e+01 -7.1066766442877665e+01 -7.1066767849278847e+01 -7.1078199717040007e+01 -7.1078201121507149e+01
 -5.6266197540511037e+01 -5.6266213382954525e+01 -5.6266251677051990e+01 -5.6289994382986627e+01 -5.6290010233475080e+01 -5.6290048547128436e+01 -5.6266290038731540e+01 -5.6266305948729858e+01 -5.6290086928550359e+01 -5.6290102846780378e+01
 -4.1321972779104833e+01 -4.1329005294704210e+01 -4.1322149963060561e+01 -4.1329182565674778e+01 -4.1322579298379118e+01 -4.1329612112064510e+01 -4.1350145168963230e+01 -4.1350322741806487e+01 -4.1350753018924294e+01 -4.1323010923847598e+01
 -4.1330043949702940e+01 -4.1323190399458468e+01 -4.1330223513422489e+01 -4.1351185589743345e+01 -4.1351365457779281e+01 -3.3822734605337935e+01 -3.3825005031904595e+01 -3.3823595735477824e+01 -3.3831173769720444e+01 -3.3832035240879463e+01
 -3.3825860244914047e+01 -3.3825695358427005e+01 -3.3834135707793337e+01 -3.3827945206526053e+01 -2.6283590596646949e+01 -2.6287118079920234e+01 -2.6285876753755030e+01 -2.6289404130241319e+01 -2.6292798339684687e+01 -2.6296326766499607e+01
 -2.6295836910707099e+01 -2.6298122815845012e+01 -2.6305048188249625e+01 -3.3842042196165430e+01 -3.3857103179073597e+01 -3.3857966033268767e+01 -3.3842898183179585e+01 -3.3860069863859238e+01 -3.3844985037857008e+01 -2.6304681327463012e+01
 -2.6308211176374151e+01 -2.6321945399421860e+01 -2.6325478761131908e+01 -2.6316936144127165e+01 -2.6334212344075308e+01 -3.3827825566847800e+01 -3.3836266779460985e+01 -3.3830060182711918e+01 -3.3828717322033256e+01 -3.3837158894790640e+01
 -3.3830945448705364e+01 -2.6304863715687866e+01 -2.6307149556990225e+01 -2.6314077833787671e+01 -2.6308699894245610e+01 -2.6310985709667108e+01 -2.6317915202432342e+01 -3.3862204327689149e+01 -3.3847101931355205e+01 -3.3863097854304776e+01
 -3.3847987995347779e+01 -2.6325969424205137e+01 -2.6343254401354695e+01 -2.6329808300843784e+01 -2.6347096951083888e+01 -4.1385233408794385e+01 -4.1385411529635775e+01 -4.1385843133505567e+01 -4.1433015905338081e+01 -4.1433194519906920e+01
 -4.1433627322141497e+01 -4.1386277036316180e+01 -4.1386457457580867e+01 -4.1434062432269464e+01 -4.1434243356195147e+01 -3.3877254055718304e+01 -3.3902029405929682e+01 -3.3902895362738604e+01 -3.3878112202558420e+01 -3.3905006731316163e+01
 -3.3880204302536420e+01 -2.6345244962612480e+01 -2.6348783287502769e+01 -2.6375307987259504e+01 -2.6378854427713460e+01 -2.6357529012208609e+01 -2.6387620036562495e+01 -3.3932238851171860e+01 -3.3967246385003143e+01 -3.3968116785509331e+01
 -3.3933100957889117e+01 -3.3970238985471759e+01 -3.3935202688693657e+01 -2.6413051066365988e+01 -2.6416607841341815e+01 -2.6459347459772914e+01 -2.6462917479569061e+01 -2.6425398813008901e+01 -2.6471741081865449e+01 -3.3907148799182828e+01
 -3.3882326482258904e+01 -3.3908045494254317e+01 -3.3883214746811795e+01 -2.6366583425143332e+01 -2.6396694742611700e+01 -2.6370431150331100e+01 -2.6400550990387980e+01 -3.3972392029988740e+01 -3.3937334598723602e+01 -3.3973293313611116e+01
 -3.3938226922365978e+01 -2.6434499462084229e+01 -2.6480875284236365e+01 -2.6438366621769092e+01 -2.6484756607260284e+01 -1.8683084076199069e+01 -1.8685134359549313e+01 -1.8696733243122441e+01 -1.8698783046562045e+01 -1.8691496499022588e+01
 -1.8705145829303216e+01 -1.8731605936810311e+01 -1.8733656945453809e+01 -1.8740024051365165e+01 -1.0941419171265371e+01 -1.0941078550769618e+01 -1.0953450248293167e+01 -1.0942021251141783e+01 -1.0988651394948725e+01 -1.0953118905975373e+01
 -1.0989560167375934e+01 -1.0954049138001798e+01 -1.0988968408519481e+01 -1.0943576212701441e+01 -1.0955594982152022e+01 -1.0945705387121549e+01 -1.0993218370038212e+01 -1.0957725452172198e+01 -1.0991088371430711e+01 -1.1046806760297459e+01
 -1.1122629082450828e+01 -1.1046514870715422e+01 -1.1123537755211210e+01 -1.1047415533414185e+01 -1.1122884100388731e+01 -1.1048916085091987e+01 -1.1127190091596413e+01 -1.1051065442420875e+01 -1.1124999949395621e+01 -1.8702703941852796e+01
 -1.8716357605873018e+01 -1.8719525372416786e+01 -1.8733189448966311e+01 -1.8751247636332121e+01 -1.8768105665878590e+01 -1.0949055722160375e+01 -1.0961071278927255e+01 -1.0953196863024305e+01 -1.1000710945634289e+01 -1.0965217724976144e+01
 -1.0996555795339258e+01 -1.0958767629762644e+01 -1.0970787679479002e+01 -1.0965345472686153e+01 -1.1012887306015307e+01 -1.0977374663988098e+01 -1.1006281851517960e+01 -1.1054381361557025e+01 -1.1134700450907483e+01 -1.1058565404713837e+01
 -1.1130468212074090e+01 -1.1064127281736370e+01 -1.1146953332564278e+01 -1.1070776695072430e+01 -1.1140237978412559e+01 -1.8769524252581483e+01 -1.8771578155735700e+01 -1.8777951353956780e+01 -1.8786231986175824e+01 -1.8788287097106167e+01
 -1.8794662651253251e+01 -1.1209045263630683e+01 -1.1290758282539626e+01 -1.1208846042072103e+01 -1.1291714278725959e+01 -1.1209781513845678e+01 -1.1290885878722635e+01 -1.1211185261157626e+01 -1.1295385010917895e+01 -1.1213446883906846e+01
 -1.1293042040990583e+01 -1.1350652513709296e+01 -1.1372932154339287e+01 -1.1350586058323106e+01 -1.1373902814826076e+01 -1.1351554709720016e+01 -1.1372968505860351e+01 -1.1352816572922601e+01 -1.1377568871243582e+01 -1.1355225285930199e+01
 -1.1375131044448237e+01 -1.8789187596443952e+01 -1.8806072931380971e+01 -1.8805904026550355e+01 -1.8822800864238264e+01 -1.1216661686354771e+01 -1.1302916146886837e+01 -1.1220970885093930e+01 -1.1298519845583751e+01 -1.1226458963060889e+01
 -1.1315254744508625e+01 -1.1233270925142708e+01 -1.1308337644929354e+01 -1.1358292464356463e+01 -1.1385102312681315e+01 -1.1362760090421475e+01 -1.1380602733265137e+01 -1.1368124623883240e+01 -1.1397477064818208e+01 -1.1375126819215906e+01
 -1.1390437917089573e+01 -6.9154386284256351e+00 -6.9334093075644372e+00 -6.9159340522394350e+00 -6.9340262136098554e+00 -6.9148427370453520e+00 -6.9327093348255664e+00 -6.9912503600574496e+00 -6.9905278259969119e+00 -6.9896940093286410e+00
 -2.7463022997635425e+00 -2.7423811692063427e+00 -2.7596274757999280e+00 -2.7533959228930218e+00 -2.7386241426239954e+00 -2.7485912608638379e+00 -2.8141287543108953e+00 -2.8067807279578245e+00 -2.8009911258004196e+00 -6.9148453317954184e+00
 -6.9326575146657783e+00 -6.9156720594163241e+00 -6.9334603497136307e+00 -6.9895557646062052e+00 -6.9903151259052132e+00 -2.7366071028777643e+00 -2.7462438044936479e+00 -2.7359662120543784e+00 -2.7455060851551396e+00 -2.7982237387776312e+00
 -2.7973342557551097e+00 -7.0931559175253884e+00 -7.0939213789650974e+00 -7.0922639548600817e+00 -7.2488939264415899e+00 -7.2481691236642813e+00 -7.2473276765516523e+00 -2.9345321110751250e+00 -2.9267572678103266e+00 -2.9206001874731462e+00
 -3.1699565378308425e+00 -3.1623599656369477e+00 -3.1564766603555729e+00 -7.0920779248757801e+00 -7.0928089726598271e+00 -7.2471545528409438e+00 -7.2478823569391064e+00 -2.9176402293600332e+00 -2.9166594226673532e+00 -3.1535878568213271e+00
 -3.1525859958469535e+00 -1.6916034063614609e+00 -1.6847098988632181e+00 -1.6975462699767470e+00 -1.6805253796726520e+00 -6.3877274444738430e-01 -6.2985609399915099e-01 -6.3691353014171093e-01 -5.9759970884301028e-01 3.4322344302568675e-01
 3.4478706130351711e-01 3.4433488670070844e-01 3.7843020396624188e-01 4.2327280516093690e-01 4.2329324044301431e-01 4.2329222442498632e-01 4.3839425542402305e-01 -1.6804872059914375e+00 -1.6740114139956235e+00 -6.2639578389789674e-01
 -5.9083901134262562e-01 3.4502267838328576e-01 3.7867324199465857e-01 4.2329378547616586e-01 4.3839908742066341e-01 -1.7373086883812168e+00 -1.7177559958663771e+00 -6.5793083470090485e-01 -6.1475032329044588e-01 3.4298556233314520e-01