DF-ISE text

Info {
  version = 1.0
  type    = dataset
  dimension   = 3
  nb_vertices = 5293
  nb_edges    = 23303
  nb_faces    = 30690
  nb_elements = 12980
  nb_regions  = 3
  datasets    = [ "ElectrostaticPotential" "ContactExternalVoltage" "ContactCurrentFlux" "ContactCharge" "eQuasiFermiPotential" "hQuasiFermiPotential" "QuasiFermiPotential" "LatticeTemperature" ]
  functions   = [ ElectrostaticPotential ContactExternalVoltage ContactCurrentFlux ContactCharge eQuasiFermiPotential hQuasiFermiPotential QuasiFermiPotential LatticeTemperature ]
}

Data {

  Dataset ("ElectrostaticPotential") {
    function  = ElectrostaticPotential
    type      = scalar
    dimension = 1
    location  = vertex
    validity  = [ "substrate" ]
    Values (5293) {
 -4.7537888985310786e+02 -4.7537067152394087e+02 -4.7537888985310786e+02 -4.7537888985310786e+02 -4.7537067207175687e+02 -4.7537067166088895e+02 -4.7539459903196263e+02 -4.7538638155161436e+02 -4.7535550447411879e+02 -4.7535550565948449e+02
 -4.7535550476051873e+02 -4.7537121854271874e+02 -4.7532217752756145e+02 -4.7532239153068821e+02 -4.7532221278619738e+02 -4.7533904807265185e+02 -4.7476176929071158e+02 -4.7485084210614269e+02 -4.7477621331663960e+02 -4.7525971096802516e+02
 -4.7300205115072566e+02 -4.7313469668201128e+02 -4.7302114076606864e+02 -4.7343163652933185e+02 -4.7116988929430983e+02 -4.7131727419416831e+02 -4.7118825395861808e+02 -4.7149535759944445e+02 -4.6932896899305035e+02 -4.6947757829062942e+02
 -4.6934472189550996e+02 -4.6956944571659710e+02 -4.7537888985310786e+02 -4.7537067166089304e+02 -4.7539459903196263e+02 -4.7538638168855255e+02 -4.7535550476352080e+02 -4.7537121881079241e+02 -4.7532221827812720e+02 -4.7533905097135681e+02
 -4.7477854423334833e+02 -4.7526125064859252e+02 -4.7302541314271252e+02 -4.7345215639993694e+02 -4.7119367755422570e+02 -4.7152068710153742e+02 -4.6935069465342121e+02 -4.6959392159736035e+02 -4.5435454002860217e+02 -4.5440069217260947e+02
 -4.5435666338386807e+02 -4.5440783492043187e+02 -4.5435759551931000e+02 -4.5441082660571709e+02 -4.7537888985310786e+02 -4.7537067207176290e+02 -4.7539459903196263e+02 -4.7538638158585047e+02 -4.7535550567248367e+02 -4.7537121860991294e+02
 -4.7532241539741767e+02 -4.7533904941963351e+02 -4.7486106005503848e+02 -4.7526064553840109e+02 -4.7315516564261225e+02 -4.7345097310339190e+02 -4.7134663710092485e+02 -4.7152713232553754e+02 -4.6951404970291645e+02 -4.6960984165586967e+02
 -4.7539459903196263e+02 -4.7538638172278900e+02 -4.7537121887797002e+02 -4.7533905225261395e+02 -4.7526212829066878e+02 -4.7347205777674475e+02 -4.7155361560763572e+02 -4.6963589661923447e+02 -4.5442918721236555e+02 -4.5443696817138033e+02
 -4.5444025201400530e+02 -4.7537888985310786e+02 -4.7537067166088826e+02 -4.7539459903196263e+02 -4.7538638153668956e+02 -4.7535550475934792e+02 -4.7537121851345250e+02 -4.7532221063724688e+02 -4.7533904759436689e+02 -4.7477530119102494e+02
 -4.7525940705955333e+02 -4.7301938838874810e+02 -4.7342690590278551e+02 -4.7118584003470215e+02 -4.7148856277749979e+02 -4.6934182855929714e+02 -4.6956175037652321e+02 -4.7537888985310786e+02 -4.7537067150901441e+02 -4.7537717774777707e+02
 -4.7536895992169485e+02 -4.7535550444074806e+02 -4.7535379287935655e+02 -4.7532216973181443e+02 -4.7532044213900082e+02 -4.7475852529749238e+02 -4.7478690158427810e+02 -4.7299717623929024e+02 -4.7308679460078633e+02 -4.7116433774699385e+02
 -4.7128415132848818e+02 -4.6932321021066144e+02 -4.6945566446617136e+02 -4.5435527425167510e+02 -4.5440544000640568e+02 -4.5435240328139497e+02 -4.5439662563402800e+02 -4.7539459903196263e+02 -4.7538638157092555e+02 -4.7537121858064489e+02
 -4.7533904893562345e+02 -4.7526033656686440e+02 -4.7344582609048587e+02 -4.7151961414869942e+02 -4.6960120654176671e+02 -4.7537717774777707e+02 -4.7536895991365321e+02 -4.7535379287686555e+02 -4.7532046463605633e+02 -4.7479577291531405e+02
 -4.7310531082536994e+02 -4.7131137693432629e+02 -4.6949000447246743e+02 -4.5443418862962142e+02 -4.5442450179532494e+02 -4.3925596673314925e+02 -4.3926946797561772e+02 -4.3925617347753615e+02 -4.3927001346007330e+02 -4.3925619462421861e+02
 -4.3927019723106281e+02 -4.2411388378934794e+02 -4.2411822846277397e+02 -4.2411389278855665e+02 -4.2411825964252921e+02 -4.2411386220908838e+02 -4.2411823715299568e+02 -4.3928376745006955e+02 -4.3928437944599131e+02 -4.3928458269688150e+02
 -4.2412472341536392e+02 -4.2412475935884299e+02 -4.2412473382208435e+02 -4.3925573404546702e+02 -4.3926940466132908e+02 -4.3925533068604307e+02 -4.3926856481582502e+02 -4.2411377052300378e+02 -4.2411810978677215e+02 -4.2411370974975472e+02
 -4.2411801389870817e+02 -4.3928367070332683e+02 -4.3928271707459112e+02 -4.2412458683764083e+02 -4.2412447637408178e+02 -4.7537888985310786e+02 -4.7537067207176335e+02 -4.7539459903196263e+02 -4.7538638158585059e+02 -4.7535550567506692e+02
 -4.7537121860994603e+02 -4.7532242014546495e+02 -4.7533904954005629e+02 -4.7486309440451265e+02 -4.7526075243348623e+02 -4.7315936931644586e+02 -4.7345404823236532e+02 -4.7135295166017369e+02 -4.7153289438145407e+02 -4.6952226597744880e+02
 -4.6961792685802982e+02 -4.7539459903196263e+02 -4.7538638172278900e+02 -4.7537121887799941e+02 -4.7533905235968678e+02 -4.7526222360076605e+02 -4.7347508398383019e+02 -4.7155934599800906e+02 -4.6964398345856642e+02 -4.5444113865132459e+02
 -4.5444895192905892e+02 -4.5445223784296701e+02 -4.7537888985310786e+02 -4.7537067207176347e+02 -4.7539459903196263e+02 -4.7538638158585059e+02 -4.7535550567549870e+02 -4.7537121860995137e+02 -4.7532242093909576e+02 -4.7533904955952022e+02
 -4.7486343449462322e+02 -4.7526076971137849e+02 -4.7316007615447921e+02 -4.7345454706850472e+02 -4.7135402478684887e+02 -4.7153384238061489e+02 -4.6952368201811066e+02 -4.6961928002150557e+02 -4.7539459903196263e+02 -4.7538638172278900e+02
 -4.7537121887800402e+02 -4.7533905237669217e+02 -4.7526223873993484e+02 -4.7347556682232209e+02 -4.7156027438022869e+02 -4.6964531761729609e+02 -4.5444379997175395e+02 -4.5445161037619528e+02 -4.5445489076417152e+02 -4.7539459903196263e+02
 -4.7538638157092566e+02 -4.7537121858067781e+02 -4.7533904905539299e+02 -4.7526044286407250e+02 -4.7344884784452142e+02 -4.7152527759585837e+02 -4.6960915674365077e+02 -4.7537717774777707e+02 -4.7536895991365378e+02 -4.7535379287978304e+02
 -4.7532046960884503e+02 -4.7479772873286129e+02 -4.7310936599141866e+02 -4.7131748721279479e+02 -4.6949797482243423e+02 -4.5444607786811918e+02 -4.5443631212765081e+02 -4.7539459903196263e+02 -4.7538638157092566e+02 -4.7537121858068303e+02
 -4.7533904907486198e+02 -4.7526046014279166e+02 -4.7344934058136135e+02 -4.7152621407818606e+02 -4.6961049384200635e+02 -4.7537717774777707e+02 -4.7536895991365384e+02 -4.7535379288027974e+02 -4.7532047045531380e+02 -4.7479806170003917e+02
 -4.7311005850391916e+02 -4.7131853943317691e+02 -4.6949936441547544e+02 -4.5444871994407930e+02 -4.5443894969347264e+02 -4.3929194202143145e+02 -4.3929255856620347e+02 -4.3929275549089738e+02 -4.2412918324157909e+02 -4.2412921893103169e+02
 -4.2412919019085200e+02 -4.3929389317648207e+02 -4.3929450923148096e+02 -4.3929470361167733e+02 -4.2413020105105159e+02 -4.2413023646167721e+02 -4.2413020673700225e+02 -4.3929181601908908e+02 -4.3929084307742170e+02 -4.2412903669463833e+02
 -4.2412892239307001e+02 -4.3929375948338730e+02 -4.3929278397523376e+02 -4.2413005182375099e+02 -4.2412993679864684e+02 -4.0894818628904733e+02 -4.0894973601680175e+02 -4.0894818349027605e+02 -4.0894973442440465e+02 -4.0894817111684256e+02
 -4.0894972164144423e+02 -3.9376455849971723e+02 -3.9376511508759552e+02 -3.9376455739860575e+02 -3.9376511398253524e+02 -3.9376455429844782e+02 -3.9376511069044568e+02 -4.0895257374332397e+02 -4.0895257212139848e+02 -4.0895255782330395e+02
 -3.9376626754592201e+02 -3.9376626634331268e+02 -3.9376626271252422e+02 -4.0894815160677450e+02 -4.0894969799833115e+02 -4.0894814111594599e+02 -4.0894968433708914e+02 -3.9376455060787083e+02 -3.9376510658224629e+02 -3.9376454889190472e+02
 -3.9376510461455808e+02 -4.0895253086816462e+02 -4.0895251520793482e+02 -3.9376625812977716e+02 -3.9376625592140931e+02 -3.6334943012013179e+02 -3.6334955243911713e+02 -3.6334942999963812e+02 -3.6334955231389461e+02 -3.6334942969498258e+02
 -3.6334955199382966e+02 -3.6334982556466906e+02 -3.6334982542943607e+02 -3.6334982508232514e+02 -3.6334942937140789e+02 -3.6334955164951862e+02 -3.6334942923154557e+02 -3.6334955149937139e+02 -3.6334982470705017e+02 -3.6334982454286234e+02
 -4.0895472774699545e+02 -4.0895472584057961e+02 -4.0895471052254237e+02 -3.9376718625390140e+02 -3.9376718496980283e+02 -3.9376718111274516e+02 -4.0895512977690117e+02 -4.0895512776345140e+02 -4.0895511213694419e+02 -3.9376727750550981e+02
 -3.9376727619391005e+02 -3.9376727226520018e+02 -4.0895468210539036e+02 -4.0895466569604599e+02 -3.9376717626345237e+02 -3.9376717393213710e+02 -4.0895508334220813e+02 -4.0895506675501775e+02 -3.9376726733694551e+02 -3.9376726497070166e+02
 -3.6335005675510723e+02 -3.6335005661220578e+02 -3.6335005624559363e+02 -3.6335008055074138e+02 -3.6335008040519017e+02 -3.6335008003197908e+02 -3.6335005584945009e+02 -3.6335005567620374e+02 -3.6335007962895577e+02 -3.6335007945277596e+02
 -3.3287391405617745e+02 -3.3287397758346737e+02 -3.3287391404453757e+02 -3.3287397757138478e+02 -3.3287391401595994e+02 -3.3287397754172366e+02 -3.3287414266335361e+02 -3.3287414265046783e+02 -3.3287414261879144e+02 -3.3287391398670371e+02
 -3.3287397751128071e+02 -3.3287391397433089e+02 -3.3287397749841585e+02 -3.3287414258622596e+02 -3.3287414257245189e+02 -3.0233847709611484e+02 -3.0233858385411128e+02 -3.0233847709498451e+02 -3.0233858385291381e+02 -3.0233847709218571e+02
 -3.0233858385002566e+02 -3.0233888441572151e+02 -3.0233888441446129e+02 -3.0233888441142295e+02 -3.0233847708927584e+02 -3.0233858384704723e+02 -3.0233847708798362e+02 -3.0233858384576308e+02 -3.0233888440829452e+02 -3.0233888440695068e+02
 -3.3287434842042717e+02 -3.3287434840690076e+02 -3.3287434837364560e+02 -3.3287452982489253e+02 -3.3287452981112204e+02 -3.3287452977726952e+02 -3.3287434833945849e+02 -3.3287434832500037e+02 -3.3287452974247566e+02 -3.3287452972776373e+02
 -3.0233932487913108e+02 -3.0233932487781669e+02 -3.0233932487464580e+02 -3.0233983023371604e+02 -3.0233983023236607e+02 -3.0233983022910843e+02 -3.0233932487138492e+02 -3.0233932486998674e+02 -3.0233983022576092e+02 -3.0233983022432733e+02
 -2.7174277299598657e+02 -2.7174300183670005e+02 -2.7174277299598941e+02 -2.7174300183666446e+02 -2.7174277299593655e+02 -2.7174300183658966e+02 -2.7174365348935379e+02 -2.7174365348931059e+02 -2.7174365348922083e+02 -2.7174277299578841e+02
 -2.7174300183644294e+02 -2.7174277299564199e+02 -2.7174300183633295e+02 -2.7174365348906241e+02 -2.7174365348895094e+02 -2.4108582499577435e+02 -2.4108631539877362e+02 -2.4108582499773340e+02 -2.4108631540069800e+02 -2.4108582500240126e+02
 -2.4108631540534938e+02 -2.4108771514516346e+02 -2.4108771514708380e+02 -2.4108771515172910e+02 -2.4108582500697270e+02 -2.4108631540992749e+02 -2.4108582500877799e+02 -2.4108631541176982e+02 -2.4108771515630440e+02 -2.4108771515814888e+02
 -2.7174462870334975e+02 -2.7174462870329785e+02 -2.7174462870318661e+02 -2.7174577901762314e+02 -2.7174577901755129e+02 -2.7174577901739104e+02 -2.7174462870300812e+02 -2.7174462870288920e+02 -2.7174577901716418e+02 -2.7174577901702582e+02
 -2.4108981895430264e+02 -2.4108981895621270e+02 -2.4108981896083256e+02 -2.4109231458517593e+02 -2.4109231458705182e+02 -2.4109231459158846e+02 -2.4108981896538393e+02 -2.4108981896721949e+02 -2.4109231459605729e+02 -2.4109231459785931e+02
 -4.7537888985310786e+02 -4.7537067207176335e+02 -4.7539459903196263e+02 -4.7538638158585059e+02 -4.7535550567483028e+02 -4.7537121860994318e+02 -4.7532241971052969e+02 -4.7533904952939145e+02 -4.7486290802362771e+02 -4.7526074296616889e+02
 -4.7315897956579596e+02 -4.7345377488922907e+02 -4.7135235347897662e+02 -4.7153237019791487e+02 -4.6952146401059053e+02 -4.6961716748915114e+02 -4.7539459903196263e+02 -4.7538638172278900e+02 -4.7537121887799691e+02 -4.7533905235041374e+02
 -4.7526221534518271e+02 -4.7347482066631676e+02 -4.7155883498800625e+02 -4.6964323789499633e+02 -4.5443914960513951e+02 -4.5444696718886183e+02 -4.5445025561777584e+02 -4.7537888985310786e+02 -4.7537067207176273e+02 -4.7539459903196263e+02
 -4.7538638158585047e+02 -4.7535550567162738e+02 -4.7537121860990266e+02 -4.7532241382389742e+02 -4.7533904938205518e+02 -4.7486038597327757e+02 -4.7526061218499603e+02 -4.7315377877128839e+02 -4.7345001767808873e+02 -4.7134455148458960e+02
 -4.7152532533092602e+02 -4.6951131706367858e+02 -4.6960727166856594e+02 -4.7539459903196263e+02 -4.7538638172278894e+02 -4.7537121887796104e+02 -4.7533905222010151e+02 -4.7526209934797981e+02 -4.7347114010719241e+02 -4.7155185841699404e+02
 -4.6963337884405519e+02 -4.5442409255441459e+02 -4.5443188929612450e+02 -4.5443518209272861e+02 -4.7539459903196263e+02 -4.7538638157092566e+02 -4.7537121858067485e+02 -4.7533904904458518e+02 -4.7526043327216377e+02 -4.7344857440022389e+02
 -4.7152475332930965e+02 -4.6960839730656119e+02 -4.7537717774777707e+02 -4.7536895991365367e+02 -4.7535379287950497e+02 -4.7532046913484845e+02 -4.7479754228165024e+02 -4.7310897616433613e+02 -4.7131688895410997e+02 -4.6949717277969870e+02
 -4.5444409310634506e+02 -4.5443432305246370e+02 -4.7539459903196263e+02 -4.7538638157092555e+02 -4.7537121858063443e+02 -4.7533904889754092e+02 -4.7526030277415293e+02 -4.7344487029712997e+02 -4.7151780684855493e+02 -4.6959863630344699e+02
 -4.7537717774777707e+02 -4.7536895991365293e+02 -4.7535379287585926e+02 -4.7532046292118616e+02 -4.7479509857923978e+02 -4.7310392367573502e+02 -4.7130929103659093e+02 -4.6948727155971665e+02 -4.5442910968629155e+02 -4.5441940704708793e+02
 -4.3928984801361548e+02 -4.3929046501350359e+02 -4.3929066228138248e+02 -4.2412746150839371e+02 -4.2412749724660455e+02 -4.2412746854784200e+02 -4.3927909855725960e+02 -4.3927971210755857e+02 -4.3927991649898746e+02 -4.2412118215932901e+02
 -4.2412121825703827e+02 -4.2412119284875888e+02 -4.3928972245977820e+02 -4.3928874906036367e+02 -4.2412731500809514e+02 -4.2412720065689655e+02 -4.3927900334624491e+02 -4.3927804815575473e+02 -4.2412104572988534e+02 -4.2412093510957851e+02
 -4.7537888985310786e+02 -4.7537067206429276e+02 -4.7539459903196263e+02 -4.7538638154788288e+02 -4.7535550564015762e+02 -4.7537121853535962e+02 -4.7532238278051983e+02 -4.7533904780139466e+02 -4.7484712873436132e+02 -4.7525950133736410e+02
 -4.7312796227074028e+02 -4.7342706161740165e+02 -4.7130816195412768e+02 -4.7148751416156989e+02 -4.6946661080457392e+02 -4.6955911566393445e+02 -4.7539459903196263e+02 -4.7538638168482106e+02 -4.7537121880344131e+02 -4.7533905072893054e+02
 -4.7526106612187954e+02 -4.7344773872726489e+02 -4.7151303144508665e+02 -4.6958377025817691e+02 -4.5438957785760704e+02 -4.5439676880037138e+02 -4.5439978502320156e+02 -4.7537717774777707e+02 -4.7536895927453668e+02 -4.7537717774777707e+02
 -4.7536895942223310e+02 -4.7535379145740831e+02 -4.7535379176835181e+02 -4.7532017077503781e+02 -4.7532020957876750e+02 -4.7468322437746212e+02 -4.7469778559992903e+02 -4.7293152772020665e+02 -4.7295076306868856e+02 -4.7111015471780917e+02
 -4.7112865584749937e+02 -4.6927854250205695e+02 -4.6929441003435085e+02 -4.7537717774777707e+02 -4.7536895942223782e+02 -4.7535379177191629e+02 -4.7532021562657656e+02 -4.7470013627410856e+02 -4.7295507063142355e+02 -4.7113412375560165e+02
 -4.6930043155046627e+02 -4.5433371743829866e+02 -4.5433585663064105e+02 -4.5433679889733867e+02 -4.7539459903196263e+02 -4.7538638153295807e+02 -4.7537121850609242e+02 -4.7533904732001560e+02 -4.7525919473155130e+02 -4.7342232908379685e+02
 -4.7148071800512525e+02 -4.6955141942615666e+02 -4.7537717774777707e+02 -4.7536895991364480e+02 -4.7535379285805362e+02 -4.7532043260411979e+02 -4.7478318708679416e+02 -4.7308005908932955e+02 -4.7127503809393005e+02 -4.6944469611565995e+02
 -4.5439437372190321e+02 -4.5438551110893496e+02 -4.7537717774777707e+02 -4.7536895942223225e+02 -4.7535379176697239e+02 -4.7532020723137668e+02 -4.7469687315391451e+02 -4.7294901032608340e+02 -4.7112624155314347e+02 -4.6929151634058684e+02
 -4.7537717774777707e+02 -4.7536895925843839e+02 -4.7535379142099731e+02 -4.7532016225961127e+02 -4.7467997974037763e+02 -4.7292665222206472e+02 -4.7110460263257681e+02 -4.6927278322742131e+02 -4.5433446737180458e+02 -4.5433158050463521e+02
 -4.3926150989127274e+02 -4.3926205929160454e+02 -4.3926224574268815e+02 -4.2411290994111783e+02 -4.2411294145651465e+02 -4.2411291923477268e+02 -4.3924520479912411e+02 -4.3924541339234344e+02 -4.3924543596718871e+02 -4.2410756002443605e+02
 -4.2410756922381529e+02 -4.2410753881035123e+02 -4.3926145045386642e+02 -4.3926060667653820e+02 -4.2411279158682652e+02 -4.2411269535624291e+02 -4.3924497391046094e+02 -4.3924456867023594e+02 -4.2410744692900573e+02 -4.2410738593150148e+02
 -4.0895347568804902e+02 -4.0895347378675535e+02 -4.0895345847318265e+02 -3.9376635682055473e+02 -3.9376635553677500e+02 -3.9376635167986967e+02 -4.0895011663310180e+02 -4.0895011502620179e+02 -4.0895010074094006e+02 -3.9376468596548284e+02
 -3.9376468476366210e+02 -3.9376468113304077e+02 -4.0895343005070720e+02 -4.0895341363588210e+02 -3.9376634682991289e+02 -3.9376634449806346e+02 -4.0895007377018010e+02 -4.0895005809368985e+02 -3.9376467654814184e+02 -3.9376467433808125e+02
 -3.6334984070657163e+02 -3.6334984056360020e+02 -3.6334984019679308e+02 -3.6334941858399679e+02 -3.6334941844847600e+02 -3.6334941810056404e+02 -3.6334983980041676e+02 -3.6334983962705996e+02 -3.6334941772428579e+02 -3.6334941755955623e+02
 -4.0894628235123542e+02 -4.0894628078781136e+02 -4.0894626802814497e+02 -3.9376297350712719e+02 -3.9376297240302472e+02 -3.9376296910981665e+02 -4.0894428860824530e+02 -4.0894428582839276e+02 -4.0894427346637895e+02 -3.9376219872408501e+02
 -3.9376219762219102e+02 -3.9376219451573672e+02 -4.0894624435321896e+02 -4.0894623065828284e+02 -3.9376296499547823e+02 -3.9376296302262068e+02 -4.0894425392072543e+02 -4.0894424338869737e+02 -3.9376219080853389e+02 -3.9376218907130362e+02
 -3.6334900959395969e+02 -3.6334900946775639e+02 -3.6334900914483552e+02 -3.6334883701129723e+02 -3.6334883688847020e+02 -3.6334883657611653e+02 -3.6334900879638695e+02 -3.6334900864310453e+02 -3.6334883623752370e+02 -3.6334883607759673e+02
 -3.3287464529338303e+02 -3.3287464527977551e+02 -3.3287464524631667e+02 -3.3287469002147543e+02 -3.3287469000827235e+02 -3.3287468997577105e+02 -3.3287464521191305e+02 -3.3287464519735880e+02 -3.3287468994224207e+02 -3.3287468992796221e+02
 -3.0234032022737114e+02 -3.0234032022597495e+02 -3.0234032022259953e+02 -3.0234072340880590e+02 -3.0234072340722702e+02 -3.0234072340336206e+02 -3.0234032021912208e+02 -3.0234032021762812e+02 -3.0234072339927042e+02 -3.0234072339742141e+02
 -3.3287469110535460e+02 -3.3287469109224133e+02 -3.3287469105968364e+02 -3.3287468559096192e+02 -3.3287468557694547e+02 -3.3287468554063139e+02 -3.3287469102516604e+02 -3.3287469100920805e+02 -3.3287468549633246e+02 -3.3287468546332076e+02
 -3.0234098638305943e+02 -3.0234098638082912e+02 -3.0234098637504258e+02 -3.0234107746534028e+02 -3.0234107746183145e+02 -3.0234107745129035e+02 -3.0234098636798888e+02 -3.0234098636359624e+02 -3.0234107743325762e+02 -3.0234107741067334e+02
 -2.7174692934310895e+02 -2.7174692934297127e+02 -2.7174692934264567e+02 -2.7174790456392583e+02 -2.7174790456355584e+02 -2.7174790456262031e+02 -2.7174692934224095e+02 -2.7174692934202238e+02 -2.7174790456147957e+02 -2.7174790456085498e+02
 -2.4109482570815220e+02 -2.4109482570993057e+02 -2.4109482571422527e+02 -2.4109696692985159e+02 -2.4109696693135115e+02 -2.4109696693492378e+02 -2.4109482571843964e+02 -2.4109482572012976e+02 -2.4109696693828997e+02 -2.4109696693952750e+02
 -2.7174855619164242e+02 -2.7174855619056245e+02 -2.7174855618756311e+02 -2.7174878500960358e+02 -2.7174878500721542e+02 -2.7174878499938785e+02 -2.7174855618331344e+02 -2.7174855618006865e+02 -2.7174878498401205e+02 -2.7174878496188245e+02
 -2.4109840410342744e+02 -2.4109840410417169e+02 -2.4109840410557206e+02 -2.4109891001134872e+02 -2.4109891001076406e+02 -2.4109891000728706e+02 -2.4109840410571942e+02 -2.4109840410427751e+02 -2.4109890999619361e+02 -2.4109890997515885e+02
 -2.1036554047254859e+02 -2.1036657828980634e+02 -2.1036554049559012e+02 -2.1036657831282446e+02 -2.1036554055115545e+02 -2.1036657836839686e+02 -2.1036954725268822e+02 -2.1036954727571404e+02 -2.1036954733130887e+02 -2.1036554060662570e+02
 -2.1036657842389698e+02 -2.1036554062951134e+02 -2.1036657844682784e+02 -2.1036954738683457e+02 -2.1036954740977941e+02 -1.7957753937550825e+02 -1.7957970256381299e+02 -1.7957753963623659e+02 -1.7957970282469719e+02 -1.7957754026570072e+02
 -1.7957970345459802e+02 -1.7958591570223973e+02 -1.7958591596345846e+02 -1.7958591659417107e+02 -1.7957754089517380e+02 -1.7957970408453059e+02 -1.7957754115584663e+02 -1.7957970434542537e+02 -1.7958591722491909e+02 -1.7958591748615513e+02
 -2.1037402862138788e+02 -2.1037402864436800e+02 -2.1037402869985198e+02 -2.1037937488849710e+02 -2.1037937491128625e+02 -2.1037937496630821e+02 -2.1037402875526843e+02 -2.1037402877816896e+02 -2.1037937502126337e+02 -2.1037937504397354e+02
 -1.7959536466163547e+02 -1.7959536492270533e+02 -1.7959536555305829e+02 -1.7960675224464177e+02 -1.7960675250404535e+02 -1.7960675313037444e+02 -1.7959536618344868e+02 -1.7959536644453769e+02 -1.7960675375674165e+02 -1.7960675401616490e+02
 -1.4871281106811500e+02 -1.4871720532894673e+02 -1.4871281400825217e+02 -1.4871720827207707e+02 -1.4871282110890195e+02 -1.4871721538001927e+02 -1.4872991914892671e+02 -1.4872992209840550e+02 -1.4872992922169314e+02 -1.4871282821315128e+02
 -1.4871722249159606e+02 -1.4871283115682033e+02 -1.4871722543833422e+02 -1.4872993634863963e+02 -1.4872993930175352e+02 -1.1775342116669485e+02 -1.1776192225490252e+02 -1.1775345427788355e+02 -1.1776195541098684e+02 -1.1775353430313722e+02
 -1.1776203554506000e+02 -1.1778684869248144e+02 -1.1778688194900728e+02 -1.1778696232613271e+02 -1.1775361445391209e+02 -1.1776211580519163e+02 -1.1775364769058869e+02 -1.1776214908733922e+02 -1.1778704283009552e+02 -1.1778707621346608e+02
 -1.4874952449329388e+02 -1.4874952744525041e+02 -1.4874953457452966e+02 -1.4877360420198738e+02 -1.4877360714021790e+02 -1.4877361423635921e+02 -1.4874954170748384e+02 -1.4874954466309140e+02 -1.4877362133617703e+02 -1.4877362427806000e+02
 -1.1782627898293596e+02 -1.1782631231694900e+02 -1.1782639288151776e+02 -1.1787644626215570e+02 -1.1787647951398368e+02 -1.1787655988029232e+02 -1.1782647357344534e+02 -1.1782650703482467e+02 -1.1787664037416849e+02 -1.1787667375357228e+02
 -8.6665549515815357e+01 -8.6680463303541032e+01 -8.6665921371256928e+01 -8.6680835798110863e+01 -8.6666822068411534e+01 -8.6681738053751587e+01 -8.6725285130806981e+01 -8.6725659066247204e+01 -8.6726564821304635e+01 -8.6667727028257545e+01
 -8.6682644592718006e+01 -8.6668103148886928e+01 -8.6683021373104168e+01 -8.6727474888119630e+01 -8.6727853137777529e+01 -7.1052036470364001e+01 -7.1056794656343783e+01 -7.1053844061550151e+01 -7.1069948213962491e+01 -7.1071759802454338e+01
 -7.1058590717363813e+01 -7.1058246943159915e+01 -7.1076172638939823e+01 -7.1062965134691311e+01 -5.5371143812680245e+01 -5.5378558948640375e+01 -5.5375953165658110e+01 -5.5383373386507778e+01 -5.5390577593895713e+01 -5.5398012982685700e+01
 -5.5396845604382456e+01 -5.5401673765353678e+01 -5.5416352649777991e+01 -7.1092979128511431e+01 -7.1125056246179483e+01 -7.1126876177535323e+01 -7.1094781996919920e+01 -7.1131309463507350e+01 -7.1099173226505371e+01 -5.5415793113916855e+01
 -5.5423246350284600e+01 -5.5452579763946481e+01 -5.5460052937024770e+01 -5.5441631117439414e+01 -5.5478487092417112e+01 -7.1062706646418036e+01 -7.1080642687147503e+01 -7.1067395425059871e+01 -7.1064571124773423e+01 -7.1082511551370729e+01
 -7.1069247422291369e+01 -5.5415703541259717e+01 -5.5420547121065901e+01 -5.5435268620143802e+01 -5.5423691155336456e+01 -5.5428541504869820e+01 -5.5443281475979553e+01 -7.1135800375069621e+01 -7.1103620825266745e+01 -7.1137677995106529e+01
 -7.1105480124339906e+01 -5.5460594806768931e+01 -5.5497501858817238e+01 -5.5468628115325828e+01 -5.5505556789770658e+01 -8.6799605344510312e+01 -8.6799980699596048e+01 -8.6800889894917375e+01 -8.6900577612034638e+01 -8.6900953053992168e+01
 -8.6901862468222049e+01 -8.6801803419872044e+01 -8.6802183107071727e+01 -8.6902776224599720e+01 -8.6903156011251980e+01 -7.1167842051839031e+01 -7.1220557122518244e+01 -7.1222385964290751e+01 -7.1169653742834385e+01 -7.1226840920232007e+01
 -7.1174066479703185e+01 -5.5502340700552573e+01 -5.5509832801433490e+01 -5.5566608809438712e+01 -5.5574121934679169e+01 -5.5528313400346931e+01 -5.5592653988283260e+01 -7.1284626183745317e+01 -7.1358863788776205e+01 -7.1360698517577845e+01
 -7.1286446046523466e+01 -7.1365167852599669e+01 -7.1290878659486609e+01 -5.5647236148587794e+01 -5.5654769741082966e+01 -5.5745946893568785e+01 -5.5753500021361816e+01 -5.5673351963724457e+01 -5.5772130459511516e+01 -7.1231353718245018e+01
 -7.1178535868895679e+01 -7.1233240465737865e+01 -7.1180404273646204e+01 -5.5547375615349026e+01 -5.5611768592362324e+01 -5.5555450482232530e+01 -5.5619865425437830e+01 -7.1369695255186969e+01 -7.1295368125895195e+01 -7.1371588116909606e+01
 -7.1297244904606089e+01 -5.5692517735602536e+01 -5.5791345844589920e+01 -5.5700636046659426e+01 -5.5799485107210593e+01 -3.9577601840263469e+01 -3.9581636203648770e+01 -3.9606418850426564e+01 -3.9610481387016051e+01 -3.9594506093198724e+01
 -3.9623420561118124e+01 -3.9679680450596976e+01 -3.9683834191984673e+01 -3.9696975712335174e+01 -2.3504048019883349e+01 -2.3504000041726563e+01 -2.3529776948710385e+01 -2.3503704879565383e+01 -2.3605780788484594e+01 -2.3529749411790220e+01
 -2.3605507994548383e+01 -2.3529440932150774e+01 -2.3605792871854437e+01 -2.3505024621282111e+01 -2.3530770885622086e+01 -2.3507673450787806e+01 -2.3609711020203665e+01 -2.3533460239441677e+01 -2.3606900405254208e+01 -2.3729044968228731e+01
 -2.3889593158689330e+01 -2.3729023602717550e+01 -2.3889982006481834e+01 -2.3728970889031611e+01 -2.3889658440578074e+01 -2.3730522039202640e+01 -2.3895329406446411e+01 -2.3733609151294807e+01 -2.3891804477109222e+01 -3.9617843284955903e+01
 -3.9646838300814871e+01 -3.9653567347586744e+01 -3.9682639253659218e+01 -3.9720609887951156e+01 -3.9756607543230317e+01 -2.3513259273402852e+01 -2.3539074633928227e+01 -2.3520964131947782e+01 -2.3623296151952459e+01 -2.3546824743735261e+01
 -2.3615422607608103e+01 -2.3532144419357415e+01 -2.3558031187679180e+01 -2.3545873201992247e+01 -2.3648463013857210e+01 -2.3571801378295138e+01 -2.3634585977600192e+01 -2.3739478738062743e+01 -2.3909867772576224e+01 -2.3747592624525147e+01
 -2.3901409145657528e+01 -2.3758994959654849e+01 -2.3935751908293682e+01 -2.3773075069914857e+01 -2.3921392145542232e+01 -3.9758579687274889e+01 -3.9762849626068082e+01 -3.9776234860014632e+01 -3.9793055902567524e+01 -3.9797378771730621e+01
 -3.9810874174769395e+01 -2.4068944448607080e+01 -2.4236396141341324e+01 -2.4068823128268885e+01 -2.4237976223374577e+01 -2.4069835614813979e+01 -2.4236530439484614e+01 -2.4071994254456911e+01 -2.4245101234091617e+01 -2.4076096495559035e+01
 -2.4240425013542481e+01 -2.4357294095258403e+01 -2.4401920903356956e+01 -2.4357167913707578e+01 -2.4404043832961179e+01 -2.4359148246969156e+01 -2.4402029795369515e+01 -2.4361792680591044e+01 -2.4412014040841282e+01 -2.4366895767401871e+01
 -2.4406744047933007e+01 -3.9800113448389290e+01 -3.9836322465341020e+01 -3.9834861034583000e+01 -3.9871161560397610e+01 -2.4082393906063377e+01 -2.4260899900383759e+01 -2.4091287139551852e+01 -2.4251575118875540e+01 -2.4102906155053176e+01
 -2.4287625892960218e+01 -2.4117615319626811e+01 -2.4272571652352685e+01 -2.4373484283463306e+01 -2.4428406149349730e+01 -2.4383132034420132e+01 -2.4418629352242004e+01 -2.4394827484123365e+01 -2.4455514240084639e+01 -2.4410141635994552e+01
 -2.4440094893334070e+01 -1.5147743775296361e+01 -1.5186064944034563e+01 -1.5152060929986977e+01 -1.5190903501872674e+01 -1.5140359260328697e+01 -1.5178255798894059e+01 -1.5316478098271936e+01 -1.5311238375407434e+01 -1.5303012543917824e+01
 -6.5202051225608386e+00 -6.4934262636868185e+00 -6.5401245984458773e+00 -6.5031128796671105e+00 -6.4642308896355889e+00 -6.4690034432448478e+00 -6.6651813089299630e+00 -6.6227236010113035e+00 -6.5840752809211223e+00 -1.5134449016519502e+01
 -1.5172174913283413e+01 -1.5131623673181286e+01 -1.5169322792595761e+01 -1.5296790619201262e+01 -1.5293996279362412e+01 -6.4460132774456316e+00 -6.4493912861948610e+00 -6.4368084724246613e+00 -6.4398960446317135e+00 -6.5626353626825029e+00
 -6.5526466045082108e+00 -1.5536959645304606e+01 -1.5542102325649957e+01 -1.5528947495657773e+01 -1.5876233616187923e+01 -1.5872003940786712e+01 -1.5865437507728137e+01 -6.9585808808290635e+00 -6.9153467392052219e+00 -6.8744848138512786e+00
 -7.5087011471841549e+00 -7.4724006125143623e+00 -7.4375457195136523e+00 -1.5523061768251392e+01 -1.5520653181509648e+01 -1.5860795958984061e+01 -1.5859326358255943e+01 -6.8521274097953766e+00 -6.8420605413676006e+00 -7.4182193100932130e+00
 -7.4096962220514282e+00 -4.3702795002820691e+00 -4.3187130385991850e+00 -4.3574478502289358e+00 -4.2613642623065813e+00 -2.2539458431564214e+00 -2.1703947290108894e+00 -2.1979400905710640e+00 -1.9766686812257885e+00 -2.7283716046596568e-01
 -1.7346822688288072e-01 -1.8758465789297080e-01 2.7622816104206022e-01 4.2184432301157554e-01 4.2209945268235222e-01 4.2206600824583274e-01 4.3827516508540831e-01 -4.2818361045570956e+00 -4.2131983931967500e+00 -2.1305146450236503e+00
 -1.9185370398669761e+00 -1.4452266588246968e-01 3.1607530398802719e-01 4.2216793058981700e-01 4.3832629995122979e-01 -4.4496790588013848e+00 -4.3395871704333215e+00 -2.2496540130929152e+00 -2.0021510619597209e+00 -2.0360463157198383e-01