DF-ISE text

Info {
  version = 1.0
  type    = dataset
  dimension   = 3
  nb_vertices = 5293
  nb_edges    = 23303
  nb_faces    = 30690
  nb_elements = 12980
  nb_regions  = 3
  datasets    = [ "ElectrostaticPotential" "ContactExternalVoltage" "ContactCurrentFlux" "ContactCharge" "eQuasiFermiPotential" "hQuasiFermiPotential" "QuasiFermiPotential" "LatticeTemperature" ]
  functions   = [ ElectrostaticPotential ContactExternalVoltage ContactCurrentFlux ContactCharge eQuasiFermiPotential hQuasiFermiPotential QuasiFermiPotential LatticeTemperature ]
}

Data {

  Dataset ("ElectrostaticPotential") {
    function  = ElectrostaticPotential
    type      = scalar
    dimension = 1
    location  = vertex
    validity  = [ "substrate" ]
    Values (5293) {
 -2.0037888985310795e+02 -2.0037067152405635e+02 -2.0037888985310795e+02 -2.0037888985310795e+02 -2.0037067207185129e+02 -2.0037067166100093e+02 -2.0039459903196268e+02 -2.0038638155161516e+02 -2.0035550509483335e+02 -2.0035550616684503e+02
 -2.0035550536276696e+02 -2.0037121855020243e+02 -2.0032331832322197e+02 -2.0032332409840024e+02 -2.0032331966863143e+02 -2.0033907553037525e+02 -2.0025767354453922e+02 -2.0025827814607601e+02 -2.0025778096613757e+02 -2.0028409393625620e+02
 -1.9955252424716082e+02 -1.9956555225347975e+02 -1.9955459121021090e+02 -1.9962329803821120e+02 -1.9878079711200076e+02 -1.9879986655573606e+02 -1.9878344025034218e+02 -1.9883529901016956e+02 -1.9800628658074365e+02 -1.9802813231676907e+02
 -1.9800892458586651e+02 -1.9804645005469007e+02 -2.0037888985310795e+02 -2.0037067166100451e+02 -2.0039459903196268e+02 -2.0038638168855323e+02 -2.0035550536280365e+02 -2.0037121881780021e+02 -2.0032331971100206e+02 -2.0033907671198463e+02
 -2.0025779973959015e+02 -2.0028416256161958e+02 -1.9955508654700512e+02 -1.9962723694007627e+02 -1.9878427594353775e+02 -1.9884032390052477e+02 -1.9800997512779992e+02 -1.9805140090113088e+02 -1.9176476182047966e+02 -1.9177214777682369e+02
 -1.9176516187580390e+02 -1.9177358967882611e+02 -1.9176537060373158e+02 -1.9177424836807791e+02 -2.0037888985310795e+02 -2.0037067207185490e+02 -2.0039459903196268e+02 -2.0038638158585121e+02 -2.0035550616695315e+02 -2.0037121861711543e+02
 -2.0032332427200370e+02 -2.0033907585423520e+02 -2.0025835543208888e+02 -2.0028413633811525e+02 -1.9956765161012356e+02 -1.9962630616232184e+02 -1.9880372964632684e+02 -1.9884032986392188e+02 -1.9803342298341616e+02 -1.9805288768875235e+02
 -2.0039459903196268e+02 -2.0038638172278968e+02 -2.0037121888471546e+02 -2.0033907703858807e+02 -2.0028420739719562e+02 -1.9963045424947873e+02 -1.9884570851248793e+02 -1.9805828060884221e+02 -1.9177669760328109e+02 -1.9177829964841635e+02
 -1.9177904329155308e+02 -2.0037888985310795e+02 -2.0037067166100056e+02 -2.0039459903196268e+02 -2.0038638153669029e+02 -2.0035550536275977e+02 -2.0037121852103340e+02 -2.0032331965814200e+02 -2.0033907539841940e+02 -2.0025777630344243e+02
 -2.0028408395825937e+02 -1.9955446778599404e+02 -1.9962272616231681e+02 -1.9878321771573744e+02 -1.9883446060515070e+02 -1.9800862610057786e+02 -1.9804549377210083e+02 -2.0037888985310795e+02 -2.0037067150913066e+02 -2.0037717774777707e+02
 -2.0036895992183148e+02 -2.0035550506562140e+02 -2.0035379356001133e+02 -2.0032331816420671e+02 -2.0032160228180311e+02 -2.0025765648846027e+02 -2.0025454435508004e+02 -1.9955218720658726e+02 -1.9955958199448261e+02 -1.9878028942298243e+02
 -1.9879567812990979e+02 -1.9800568762203235e+02 -1.9802537087649446e+02 -1.9176500028086105e+02 -1.9177329258867030e+02 -1.9176451336659142e+02 -1.9177164101974577e+02 -2.0039459903196268e+02 -2.0038638157092629e+02 -2.0037121858794595e+02
 -2.0033907572166066e+02 -2.0028412581144167e+02 -1.9962568826273576e+02 -1.9883940835317071e+02 -1.9805182073156831e+02 -2.0037717774777707e+02 -2.0036895991378711e+02 -2.0035379354440013e+02 -2.0032160241438851e+02 -2.0025462596121477e+02
 -1.9956154545595783e+02 -1.9879933777523476e+02 -1.9803042692390014e+02 -1.9177795477565988e+02 -1.9177611499434369e+02 -1.8549041150296964e+02 -1.8549261094882405e+02 -1.8549045566738874e+02 -1.8549272678562173e+02 -1.8549047355254584e+02
 -1.8549278334904730e+02 -1.7919645576930122e+02 -1.7919716917229155e+02 -1.7919645913050110e+02 -1.7919717746552021e+02 -1.7919645740949980e+02 -1.7919717834203200e+02 -1.8549493543974407e+02 -1.8549506821525830e+02 -1.8549513364133361e+02
 -1.7919823903434167e+02 -1.7919824879608490e+02 -1.7919825001319109e+02 -1.8549040301021515e+02 -1.8549265148333956e+02 -1.8549033529054716e+02 -1.8549249909005721e+02 -1.7919644429460755e+02 -1.7919715896294946e+02 -1.7919643465089885e+02
 -1.7919714267104510e+02 -1.8549498027383299e+02 -1.8549480502539927e+02 -1.7919822740346575e+02 -1.7919820839558054e+02 -2.0037888985310795e+02 -2.0037067207185490e+02 -2.0039459903196268e+02 -2.0038638158585127e+02 -2.0035550616697253e+02
 -2.0037121861711748e+02 -2.0032332430768847e+02 -2.0033907586063992e+02 -2.0025837134192830e+02 -2.0028414203955404e+02 -1.9956808572455057e+02 -1.9962676543804804e+02 -1.9880455838350218e+02 -1.9884120958874200e+02 -1.9803460319454675e+02
 -1.9805413600894371e+02 -2.0039459903196268e+02 -2.0038638172278976e+02 -2.0037121888471754e+02 -2.0033907704514891e+02 -2.0028421323988474e+02 -1.9963092701307585e+02 -1.9884661350425608e+02 -1.9805956340579064e+02 -1.9177861465018802e+02
 -1.9178023341711190e+02 -1.9178098598266783e+02 -2.0037888985310795e+02 -2.0037067207185490e+02 -2.0039459903196268e+02 -2.0038638158585127e+02 -2.0035550616697597e+02 -2.0037121861711776e+02 -2.0032332431399743e+02 -2.0033907586171406e+02
 -2.0025837415482505e+02 -2.0028414299649370e+02 -1.9956816254403040e+02 -1.9962684257151591e+02 -1.9880470638880539e+02 -1.9884135970561564e+02 -1.9803481688805809e+02 -1.9805435321459413e+02 -2.0039459903196268e+02 -2.0038638172278976e+02
 -2.0037121888471782e+02 -2.0033907704622803e+02 -2.0028421420163559e+02 -1.9963100488879127e+02 -1.9884676507974930e+02 -1.9805978267069648e+02 -1.9177907570631123e+02 -1.9178069579514118e+02 -1.9178144886954212e+02 -2.0039459903196268e+02
 -2.0038638157092635e+02 -2.0037121858794794e+02 -2.0033907572799646e+02 -2.0028413145088049e+02 -1.9962614218352755e+02 -1.9884027782874423e+02 -1.9805305468159327e+02 -2.0037717774777707e+02 -2.0036895991378708e+02 -2.0035379354442577e+02
 -2.0032160245830033e+02 -2.0025464411479120e+02 -1.9956197145431105e+02 -1.9880014957061391e+02 -1.9803158320459175e+02 -1.9177987736953344e+02 -1.9177801555774610e+02 -2.0039459903196268e+02 -2.0038638157092635e+02 -2.0037121858794822e+02
 -2.0033907572906361e+02 -2.0028413240149237e+02 -1.9962621874380847e+02 -1.9884042682895003e+02 -1.9805327029267775e+02 -2.0037717774777707e+02 -2.0036895991378708e+02 -2.0035379354443037e+02 -2.0032160246615021e+02 -2.0025464735988456e+02
 -1.9956204766603432e+02 -1.9880029602409596e+02 -1.9803179454125475e+02 -1.9178033786613082e+02 -1.9177847391075687e+02 -1.8549627875934976e+02 -1.8549641381970596e+02 -1.8549647987713544e+02 -1.7919899038424498e+02 -1.7919900032804438e+02
 -1.7919900133763119e+02 -1.8549664087131458e+02 -1.8549677612116446e+02 -1.8549684208194370e+02 -1.7919920199069890e+02 -1.7919921193488298e+02 -1.7919921285544490e+02 -1.8549632174863038e+02 -1.8549614242693087e+02 -1.7919897772870644e+02
 -1.7919895803158587e+02 -1.8549668318726299e+02 -1.8549650331218277e+02 -1.7919918904149847e+02 -1.7919916922144930e+02 -1.7288619312377273e+02 -1.7288645137459045e+02 -1.7288619303613734e+02 -1.7288645160055694e+02 -1.7288619176094946e+02
 -1.7288645040282518e+02 -1.6656056145422400e+02 -1.6656065834022939e+02 -1.6656056133971219e+02 -1.6656065823409656e+02 -1.6656056097915933e+02 -1.6656065785645785e+02 -1.7288692983086699e+02 -1.7288693013788853e+02 -1.7288692882315777e+02
 -1.6656086424896776e+02 -1.6656086413636120e+02 -1.6656086372099074e+02 -1.7288618914233422e+02 -1.7288644710648413e+02 -1.7288618760688979e+02 -1.7288644499800824e+02 -1.6656056050664165e+02 -1.6656065732097940e+02 -1.6656056027552617e+02
 -1.6656065704791169e+02 -1.7288692502583069e+02 -1.7288692257681367e+02 -1.6656086311891633e+02 -1.6656086280894081e+02 -1.5386415985013434e+02 -1.5386418805325241e+02 -1.5386415983590831e+02 -1.5386418803861747e+02 -1.5386415979891348e+02
 -1.5386418799980845e+02 -1.5386425633793880e+02 -1.5386425632218666e+02 -1.5386425628006819e+02 -1.5386415975825241e+02 -1.5386418795624522e+02 -1.5386415974026136e+02 -1.5386418793670333e+02 -1.5386425623236605e+02 -1.5386425621085317e+02
 -1.7288730898592738e+02 -1.7288730928218374e+02 -1.7288730786286931e+02 -1.6656104340855336e+02 -1.6656104328772525e+02 -1.6656104284577228e+02 -1.7288741672652898e+02 -1.7288741701398709e+02 -1.7288741556066032e+02 -1.6656109761229510e+02
 -1.6656109748842735e+02 -1.6656109703788118e+02 -1.7288730385883460e+02 -1.7288730129102126e+02 -1.6656104220803030e+02 -1.6656104188045646e+02 -1.7288741150550425e+02 -1.7288740891115222e+02 -1.6656109638982417e+02 -1.6656109605745328e+02
 -1.5386433032397284e+02 -1.5386433030731186e+02 -1.5386433026277916e+02 -1.5386437832112549e+02 -1.5386437830413658e+02 -1.5386437825876587e+02 -1.5386433021235933e+02 -1.5386433018962896e+02 -1.5386437820744359e+02 -1.5386437818432032e+02
 -1.4110812009659412e+02 -1.4110814492858728e+02 -1.4110812009511918e+02 -1.4110814492706172e+02 -1.4110812009144377e+02 -1.4110814492325122e+02 -1.4110821314584780e+02 -1.4110821314422330e+02 -1.4110821314015783e+02 -1.4110812008757301e+02
 -1.4110814491922170e+02 -1.4110812008587723e+02 -1.4110814491745481e+02 -1.4110821313585055e+02 -1.4110821313396187e+02 -1.2829246869720834e+02 -1.2829251527458689e+02 -1.2829246869701208e+02 -1.2829251527438410e+02 -1.2829246869650095e+02
 -1.2829251527386239e+02 -1.2829264742774384e+02 -1.2829264742753270e+02 -1.2829264742699101e+02 -1.2829246869589943e+02 -1.2829251527325195e+02 -1.2829246869558571e+02 -1.2829251527293673e+02 -1.2829264742636045e+02 -1.2829264742603698e+02
 -1.4110830874833442e+02 -1.4110830874662855e+02 -1.4110830874235981e+02 -1.4110841192439645e+02 -1.4110841192265212e+02 -1.4110841191828862e+02 -1.4110830873783985e+02 -1.4110830873586039e+02 -1.4110841191367143e+02 -1.4110841191165116e+02
 -1.2829284389589469e+02 -1.2829284389567479e+02 -1.2829284389511193e+02 -1.2829307366317471e+02 -1.2829307366294231e+02 -1.2829307366234897e+02 -1.2829284389446019e+02 -1.2829284389412814e+02 -1.2829307366166645e+02 -1.2829307366132178e+02
 -1.1541703159072996e+02 -1.1541713022964051e+02 -1.1541703159072293e+02 -1.1541713022963059e+02 -1.1541703159066988e+02 -1.1541713022957560e+02 -1.1541741136209298e+02 -1.1541741136208162e+02 -1.1541741136202393e+02 -1.1541703159052578e+02
 -1.1541713022943176e+02 -1.1541703159039747e+02 -1.1541713022930563e+02 -1.1541741136187780e+02 -1.1541741136175102e+02 -1.0248139222170821e+02 -1.0248160205938949e+02 -1.0248139222250865e+02 -1.0248160206018764e+02 -1.0248139222440416e+02
 -1.0248160206208213e+02 -1.0248220108492096e+02 -1.0248220108571827e+02 -1.0248220108761137e+02 -1.0248139222620462e+02 -1.0248160206388361e+02 -1.0248139222687632e+02 -1.0248160206455756e+02 -1.0248220108941199e+02 -1.0248220109008588e+02
 -1.1541783275965147e+02 -1.1541783275963708e+02 -1.1541783275957221e+02 -1.1541833085817531e+02 -1.1541833085815026e+02 -1.1541833085805933e+02 -1.1541783275941921e+02 -1.1541783275928985e+02 -1.1541833085788014e+02 -1.1541833085774013e+02
 -1.0248310166855295e+02 -1.0248310166934677e+02 -1.0248310167123159e+02 -1.0248417037417882e+02 -1.0248417037495861e+02 -1.0248417037680935e+02 -1.0248310167302425e+02 -1.0248310167369515e+02 -1.0248417037856778e+02 -1.0248417037922474e+02
 -2.0037888985310795e+02 -2.0037067207185490e+02 -2.0039459903196268e+02 -2.0038638158585127e+02 -2.0035550616697140e+02 -2.0037121861711736e+02 -2.0032332430558364e+02 -2.0033907586028866e+02 -2.0025837040345803e+02 -2.0028414172660655e+02
 -1.9956806008527238e+02 -1.9962674020953546e+02 -1.9880450861704165e+02 -1.9884116008259397e+02 -1.9803453044337320e+02 -1.9805406340671880e+02 -2.0039459903196268e+02 -2.0038638172278976e+02 -2.0037121888471742e+02 -2.0033907704479981e+02
 -2.0028421292875294e+02 -1.9963090181532147e+02 -1.9884656403795972e+02 -1.9805949084400822e+02 -1.9177841650317407e+02 -1.9178003528369990e+02 -1.9178078785269881e+02 -2.0037888985310795e+02 -2.0037067207185487e+02 -2.0039459903196268e+02
 -2.0038638158585121e+02 -2.0035550616694891e+02 -2.0037121861711506e+02 -2.0032332426449236e+02 -2.0033907585298385e+02 -2.0025835208423300e+02 -2.0028413522381706e+02 -1.9956756033341554e+02 -1.9962621639783953e+02 -1.9880355491289245e+02
 -1.9884015611373948e+02 -1.9803317232174291e+02 -1.9805263760736653e+02 -2.0039459903196268e+02 -2.0038638172278968e+02 -2.0037121888471509e+02 -2.0033907703734462e+02 -2.0028420628948246e+02 -1.9963036460411743e+02 -1.9884553491962717e+02
 -1.9805803068987623e+02 -1.9177618459590525e+02 -1.9177778669509169e+02 -1.9177853035519408e+02 -2.0039459903196268e+02 -2.0038638157092635e+02 -2.0037121858794785e+02 -2.0033907572764463e+02 -2.0028413113747905e+02 -1.9962611693970771e+02
 -1.9884022829847700e+02 -1.9805298204990842e+02 -2.0037717774777707e+02 -2.0036895991378708e+02 -2.0035379354442421e+02 -2.0032160245564819e+02 -2.0025464301838210e+02 -1.9956194569440859e+02 -1.9880009971085565e+02 -1.9803151038134533e+02
 -1.9177967922216465e+02 -1.9177781738878014e+02 -2.0039459903196268e+02 -2.0038638157092626e+02 -2.0037121858794558e+02 -2.0033907572040732e+02 -2.0028412469549338e+02 -1.9962559844103191e+02 -1.9883923451282385e+02 -1.9805157054035041e+02
 -2.0037717774777707e+02 -2.0036895991378708e+02 -2.0035379354439445e+02 -2.0032160240491959e+02 -2.0025462204809409e+02 -1.9956145373469695e+02 -1.9879916269226990e+02 -1.9803017598992361e+02 -1.9177744177687669e+02 -1.9177560191415188e+02
 -1.8549607182104725e+02 -1.8549620688226386e+02 -1.8549627293879320e+02 -1.7919882721097306e+02 -1.7919883715465980e+02 -1.7919883816365251e+02 -1.8549446899995442e+02 -1.8549460177934768e+02 -1.8549466720377700e+02 -1.7919789947233255e+02
 -1.7919790923388973e+02 -1.7919791044940538e+02 -1.8549611480642665e+02 -1.8549593548173266e+02 -1.7919881455375142e+02 -1.7919879485607964e+02 -1.8549451382388554e+02 -1.8549433856512346e+02 -1.7919788783673175e+02 -1.7919786882707200e+02
 -2.0037888985310795e+02 -2.0037067206438806e+02 -2.0039459903196268e+02 -2.0038638154788367e+02 -2.0035550615222485e+02 -2.0037121854290791e+02 -2.0032332399549364e+02 -2.0033907549307185e+02 -2.0025825919967519e+02 -2.0028408762282874e+02
 -1.9956509702556852e+02 -1.9962285078327446e+02 -1.9879907716623009e+02 -1.9883451443202657e+02 -1.9802708562649195e+02 -1.9804540589430039e+02 -2.0039459903196268e+02 -2.0038638168482180e+02 -2.0037121881050592e+02 -2.0033907667472837e+02
 -2.0028415628423392e+02 -1.9962679025955498e+02 -1.9883954003128628e+02 -1.9805035742350040e+02 -1.9177101056350017e+02 -1.9177245266470180e+02 -1.9177311142686582e+02 -2.0037717774777707e+02 -2.0036895927470439e+02 -2.0037717774777707e+02
 -2.0036895942239641e+02 -2.0035379229319508e+02 -2.0035379258223031e+02 -2.0032159515650090e+02 -2.0032159665315467e+02 -2.0025375779796244e+02 -2.0025388402109212e+02 -1.9954510561029809e+02 -1.9954718448839279e+02 -1.9877443548368950e+02
 -1.9877708583366851e+02 -1.9800092516474632e+02 -1.9800356697289186e+02 -2.0037717774777707e+02 -2.0036895942240045e+02 -2.0035379258227735e+02 -2.0032159670698221e+02 -2.0025390614568059e+02 -1.9954768261221463e+02 -1.9877792364546860e+02
 -1.9800461899904994e+02 -1.9176257735450599e+02 -1.9176297770761556e+02 -1.9176318657140231e+02 -2.0039459903196268e+02 -2.0038638153295878e+02 -2.0037121851373882e+02 -2.0033907536110544e+02 -2.0028407763668986e+02 -1.9962227868060958e+02
 -1.9883367569818228e+02 -1.9804444923810050e+02 -2.0037717774777707e+02 -2.0036895991378253e+02 -2.0035379354423537e+02 -2.0032160216311939e+02 -2.0025452222782437e+02 -1.9955912454386046e+02 -1.9879488719906101e+02 -1.9802432315805609e+02
 -1.9177215545831999e+02 -1.9177050361146772e+02 -2.0037717774777707e+02 -2.0036895942239590e+02 -2.0035379258222068e+02 -2.0032159663981830e+02 -2.0025387852357377e+02 -1.9954706028651998e+02 -1.9877686260502753e+02 -1.9800326788329252e+02
 -2.0037717774777707e+02 -2.0036895925860722e+02 -2.0035379226168027e+02 -2.0032159497767043e+02 -2.0025373772000273e+02 -1.9954476632084405e+02 -1.9877392613490977e+02 -1.9800032501238857e+02 -1.9176281595208141e+02 -1.9176232864815586e+02
 -1.8549180466642724e+02 -1.8549192051715852e+02 -1.8549197708044986e+02 -1.7919665198582999e+02 -1.7919666027898970e+02 -1.7919666115211623e+02 -1.8548930710234438e+02 -1.8548935128733905e+02 -1.8548936917369721e+02 -1.7919583503586585e+02
 -1.7919583839663562e+02 -1.7919583666939863e+02 -1.8549184518331023e+02 -1.8549169276073150e+02 -1.7919664176570615e+02 -1.7919662546885144e+02 -1.8548929858357420e+02 -1.8548923081958557e+02 -1.7919582354043041e+02 -1.7919581388552402e+02
 -1.7288720279407016e+02 -1.7288720309022614e+02 -1.7288720167063042e+02 -1.6656099326213771e+02 -1.6656099314124484e+02 -1.6656099269912821e+02 -1.7288671838394532e+02 -1.7288671869066488e+02 -1.7288671737505268e+02 -1.6656076638426828e+02
 -1.6656076627142963e+02 -1.6656076585545065e+02 -1.7288719766626195e+02 -1.7288719509829144e+02 -1.6656099206121101e+02 -1.6656099173355958e+02 -1.7288671357661772e+02 -1.7288671112703577e+02 -1.6656076525267275e+02 -1.6656076494234517e+02
 -1.5386438498564982e+02 -1.5386438496893666e+02 -1.5386438492427345e+02 -1.5386435651093538e+02 -1.5386435649497824e+02 -1.5386435645232490e+02 -1.5386438487371530e+02 -1.5386438485092390e+02 -1.5386435640400381e+02 -1.5386435638217674e+02
 -1.7288614920798585e+02 -1.7288614943317444e+02 -1.7288614823302493e+02 -1.6656052246811637e+02 -1.6656052236128033e+02 -1.6656052198165645e+02 -1.7288584896991458e+02 -1.7288584888067246e+02 -1.7288584760012168e+02 -1.6656040992117477e+02
 -1.6656040980511577e+02 -1.6656040943967500e+02 -1.7288614493326710e+02 -1.7288614282266116e+02 -1.6656052144350048e+02 -1.6656052116870541e+02 -1.7288584497243011e+02 -1.7288584342931915e+02 -1.6656040895891013e+02 -1.6656040872043877e+02
 -1.5386431775006500e+02 -1.5386431773476664e+02 -1.5386431769408503e+02 -1.5386429963884865e+02 -1.5386429962311720e+02 -1.5386429958133976e+02 -1.5386431764797123e+02 -1.5386431762673888e+02 -1.5386429953245192e+02 -1.5386429950683168e+02
 -1.4110850482126870e+02 -1.4110850481951201e+02 -1.4110850481511619e+02 -1.4110857531348989e+02 -1.4110857531166343e+02 -1.4110857530707065e+02 -1.4110850481046148e+02 -1.4110850480842265e+02 -1.4110857530215210e+02 -1.4110857529995178e+02
 -1.2829330129468167e+02 -1.2829330129441107e+02 -1.2829330129372144e+02 -1.2829349257461433e+02 -1.2829349257420157e+02 -1.2829349257313348e+02 -1.2829330129293535e+02 -1.2829330129254416e+02 -1.2829349257189244e+02 -1.2829349257125705e+02
 -1.4110861794649594e+02 -1.4110861794431170e+02 -1.4110861793863876e+02 -1.4110863200192435e+02 -1.4110863199894729e+02 -1.4110863199047435e+02 -1.4110861793205788e+02 -1.4110861792856963e+02 -1.4110863197821132e+02 -1.4110863196840674e+02
 -1.2829361948927243e+02 -1.2829361948841182e+02 -1.2829361948602812e+02 -1.2829366387801932e+02 -1.2829366387632015e+02 -1.2829366387098753e+02 -1.2829361948285583e+02 -1.2829361948078375e+02 -1.2829366386181684e+02 -1.2829366385286730e+02
 -1.1541883008878993e+02 -1.1541883008872391e+02 -1.1541883008853000e+02 -1.1541925421605242e+02 -1.1541925421583767e+02 -1.1541925421524920e+02 -1.1541883008824053e+02 -1.1541883008805128e+02 -1.1541925421448825e+02 -1.1541925421404714e+02
 -1.0248524614702946e+02 -1.0248524614776022e+02 -1.0248524614948857e+02 -1.0248616379816866e+02 -1.0248616379873818e+02 -1.0248616380004167e+02 -1.0248524615111742e+02 -1.0248524615171722e+02 -1.0248616380116862e+02 -1.0248616380150342e+02
 -1.1541953807207869e+02 -1.1541953807140865e+02 -1.1541953806948490e+02 -1.1541963783552393e+02 -1.1541963783401015e+02 -1.1541963782910636e+02 -1.1541953806676253e+02 -1.1541953806484150e+02 -1.1541963782021172e+02 -1.1541963781087370e+02
 -1.0248677989831336e+02 -1.0248677989841504e+02 -1.0248677989835187e+02 -1.0248699680895828e+02 -1.0248699680820955e+02 -1.0248699680513411e+02 -1.0248677989747732e+02 -1.0248677989628520e+02 -1.0248699679791379e+02 -1.0248699678871567e+02
 -8.9484660917093024e+01 -8.9485103903705081e+01 -8.9484660926882881e+01 -8.9485103913495095e+01 -8.9484660950480816e+01 -8.9485103937097421e+01 -8.9486371341339108e+01 -8.9486371351132476e+01 -8.9486371374743570e+01 -8.9484660973980979e+01
 -8.9485103960603922e+01 -8.9484660983635521e+01 -8.9485103970262685e+01 -8.9486371398259337e+01 -8.9486371407922235e+01 -7.6424972140814717e+01 -7.6425894365205849e+01 -7.6424972251994262e+01 -7.6425894476420623e+01 -7.6424972520404054e+01
 -7.6425894744919091e+01 -7.6428543712448814e+01 -7.6428543823753358e+01 -7.6428544092469167e+01 -7.6424972788763569e+01 -7.6425895013369129e+01 -7.6424972899851085e+01 -7.6425895124495497e+01 -7.6428544361137099e+01 -7.6428544472354019e+01
 -8.9488284855592966e+01 -8.9488284865379214e+01 -8.9488284888973240e+01 -8.9490568387868677e+01 -8.9490568397608300e+01 -8.9490568421089549e+01 -8.9488284912472281e+01 -8.9488284922128528e+01 -8.9490568444475727e+01 -8.9490568454085533e+01
 -7.6432574391965574e+01 -7.6432574503306327e+01 -7.6432574772109788e+01 -7.6437434663814045e+01 -7.6437434774852974e+01 -7.6437435042927504e+01 -7.6432575040865771e+01 -7.6432575152119526e+01 -7.6437435310954541e+01 -7.6437435421906670e+01
 -6.3298488689256146e+01 -6.3300359454075348e+01 -6.3298489943646118e+01 -6.3300360708968078e+01 -6.3298492973241920e+01 -6.3300363739781147e+01 -6.3305773870389395e+01 -6.3305775126727823e+01 -6.3305778161032705e+01 -6.3298496004544816e+01
 -6.3300366772303377e+01 -6.3298497260595809e+01 -6.3300368028860660e+01 -6.3305781197048553e+01 -6.3305782455053567e+01 -5.0097585599322422e+01 -5.0101196401125073e+01 -5.0097599730113387e+01 -5.0101210537878778e+01 -5.0097633887674107e+01
 -5.0101244709848459e+01 -5.0111788897798107e+01 -5.0111803054222996e+01 -5.0111837273716262e+01 -5.0097668106779999e+01 -5.0101278943375220e+01 -5.0097682299089044e+01 -5.0101293141660058e+01 -5.0111871554808062e+01 -5.0111885772805664e+01
 -6.3314128673824762e+01 -6.3314129931717233e+01 -6.3314132969776274e+01 -6.3324400204335092e+01 -6.3324401460737676e+01 -6.3324404495201009e+01 -6.3314136009549735e+01 -6.3314137269112429e+01 -6.3324407531380686e+01 -6.3324408789455767e+01
 -5.0128562415710704e+01 -5.0128576602344758e+01 -5.0128610894852834e+01 -5.0149939398981672e+01 -5.0149953594906677e+01 -5.0149987909951520e+01 -5.0128645249075745e+01 -5.0128659497398921e+01 -5.0150022286859496e+01 -5.0150036544621990e+01
 -3.6807930473200670e+01 -3.6814240756206758e+01 -3.6808089189701604e+01 -3.6814399532743167e+01 -3.6808473804030328e+01 -3.6814784292458619e+01 -3.6833213398392672e+01 -3.6833372409352577e+01 -3.6833757736091883e+01 -3.6808860512322504e+01
 -3.6815171146448115e+01 -3.6809021324347846e+01 -3.6815332018818999e+01 -3.6834145158321270e+01 -3.6834306266326010e+01 -3.0121048492156611e+01 -3.0123089154793004e+01 -3.0121819770484510e+01 -3.0128614111969142e+01 -3.0129385575710664e+01
 -3.0123855103293689e+01 -3.0123700667662845e+01 -3.0131266931246824e+01 -3.0125722787664486e+01 -2.3396817602772575e+01 -2.3399975832789476e+01 -2.3398863237586927e+01 -2.3402021192635203e+01 -2.3405057351258371e+01 -2.3408215787989935e+01
 -2.3407785317895733e+01 -2.3409830086287133e+01 -2.3416025961413151e+01 -3.0138365325626626e+01 -3.0151868845325758e+01 -3.0152641322453526e+01 -3.0139131768860043e+01 -3.0154525136984706e+01 -3.0141000658756791e+01 -2.3415697865434481e+01
 -2.3418857009748645e+01 -2.3431165171711733e+01 -2.3434326932609391e+01 -2.3426668932513870e+01 -2.3442145252742478e+01 -3.0125609533073632e+01 -3.0133176259903799e+01 -3.0127617914338302e+01 -3.0126408820594399e+01 -3.0133975737717087e+01
 -3.0128411344959485e+01 -2.3415876435682247e+01 -2.3417920634555916e+01 -2.3424117835078711e+01 -2.3419317044234834e+01 -2.3421360991136631e+01 -2.3427558718145107e+01 -3.0156436935522379e+01 -3.0142896995992650e+01 -3.0157237437444820e+01
 -3.0143690926260959e+01 -2.3434762539712167e+01 -2.3450245341372185e+01 -2.3438204112770894e+01 -2.3453689613722290e+01 -3.6864714887817911e+01 -3.6864874365270531e+01 -3.6865260821190951e+01 -3.6907629889857240e+01 -3.6907789822895602e+01
 -3.6908177384024178e+01 -3.6865649376710984e+01 -3.6865810955310458e+01 -3.6908567052196723e+01 -3.6908729093809320e+01 -3.0169953845754076e+01 -3.0192183850764593e+01 -3.0192958948134237e+01 -3.0170722019237150e+01 -3.0194849126460440e+01
 -3.0172595107385231e+01 -2.3452052338620824e+01 -2.3455218118576976e+01 -2.3479015552905608e+01 -2.3482188291828329e+01 -2.3463046259938341e+01 -2.3490033478116242e+01 -3.0219309631095353e+01 -3.0250741344984149e+01 -3.0251520426472229e+01
 -3.0220081260734691e+01 -3.0253420311384776e+01 -3.0221962752416324e+01 -2.3512882570414355e+01 -2.3516064384427796e+01 -2.3554440377665127e+01 -2.3557634056216351e+01 -2.3523931832960525e+01 -2.3565530711835581e+01 -3.0196767341214940e+01
 -3.0174495669616377e+01 -3.0197570515625124e+01 -3.0175291356726930e+01 -2.3471156325243793e+01 -2.3498160931240378e+01 -2.3474604770726653e+01 -2.3501616676914647e+01 -3.0255348356547707e+01 -3.0223871801898156e+01 -3.0256155638540722e+01
 -3.0224671028650761e+01 -2.3532082044430179e+01 -2.3573710925207934e+01 -2.3535547358858480e+01 -2.3577188895410050e+01 -1.6616102406663387e+01 -1.6617926376321684e+01 -1.6628310607982201e+01 -1.6630133197369624e+01 -1.6623594106596823e+01
 -1.6635799159904476e+01 -1.6659531902587752e+01 -1.6661352951649008e+01 -1.6667016419035125e+01 -9.7076763425115793e+00 -9.7073833542161481e+00 -9.7183994764825901e+00 -9.7081844429875925e+00 -9.7498033214461657e+00 -9.7181151632174938e+00
 -9.7505689840354872e+00 -9.7189036252716328e+00 -9.7500741474578607e+00 -9.7095343744345843e+00 -9.7202441592328626e+00 -9.7113937147821225e+00 -9.7537437861765319e+00 -9.7221030699084441e+00 -9.7518900939025137e+00 -9.8017143123090289e+00
 -9.8695420735383781e+00 -9.8014668158510254e+00 -9.8702935760939390e+00 -9.8022198435187757e+00 -9.8697549001985987e+00 -9.8035100965117934e+00 -9.8734281254149039e+00 -9.8053731129066630e+00 -9.8715400856085580e+00 -1.6633596694063733e+01
 -1.6645802944261792e+01 -1.6648634580275193e+01 -1.6660847865381726e+01 -1.6677023684168276e+01 -1.6692086158936650e+01 -9.7143463694760825e+00 -9.7250502891230859e+00 -9.7180100642021454e+00 -9.7603496043129265e+00 -9.7287172672184958e+00
 -9.7566792293611471e+00 -9.7229585722914109e+00 -9.7336639658249133e+00 -9.7288145272119468e+00 -9.7711703727521719e+00 -9.7395270340285425e+00 -9.7652939230374631e+00 -9.8082821190940876e+00 -9.8800156546216353e+00 -9.8119711640726255e+00
 -9.8762931359234294e+00 -9.8169020824042512e+00 -9.8908810170852863e+00 -9.8228128537512536e+00 -9.8849176730066759e+00 -1.6693538397591677e+01 -1.6695358728115082e+01 -1.6701019969568975e+01 -1.6708545176302895e+01 -1.6710364984591344e+01
 -1.6716024707862850e+01 -9.9470011269656666e+00 -1.0020500833211512e+01 -9.9468417805037070e+00 -1.0021266998107915e+01 -9.9476041086870790e+00 -1.0020591414905674e+01 -9.9487852906319798e+00 -1.0024362736641576e+01 -9.9507233999467868e+00
 -1.0022365466582142e+01 -1.0074463873435178e+01 -1.0094604151187424e+01 -1.0074432078349396e+01 -1.0095367528483667e+01 -1.0075198258260581e+01 -1.0094607246045003e+01 -1.0076225882286881e+01 -1.0098428626431618e+01 -1.0078272057937225e+01
 -1.0096360185486484e+01 -1.6711030445059315e+01 -1.6726110896821471e+01 -1.6726036073488437e+01 -1.6741123959778591e+01 -9.9535190955409458e+00 -1.0030922322408664e+01 -9.9572997112033086e+00 -1.0027073484142067e+01 -9.9621490312848060e+00
 -1.0041835007098879e+01 -9.9681921065479138e+00 -1.0035703348998599e+01 -1.0080911753138643e+01 -1.0104966550616577e+01 -1.0084817756415012e+01 -1.0101034343552421e+01 -1.0089540998733868e+01 -1.0115897582516272e+01 -1.0095745380624860e+01
 -1.0109661250354691e+01 -6.1146721844105594e+00 -6.1305633728912463e+00 -6.1151562333064016e+00 -6.1311624890517455e+00 -6.1140622758879175e+00 -6.1298545570902467e+00 -6.1818777220480996e+00 -6.1811814873342312e+00 -6.1803462062997054e+00
 -2.3950381043162174e+00 -2.3913286036453609e+00 -2.4064534818726813e+00 -2.4005450106771167e+00 -2.3877617579275259e+00 -2.3959834410179135e+00 -2.4539760026709545e+00 -2.4470491824280844e+00 -2.4415739119077373e+00 -6.1139840543377622e+00
 -6.1297235469120182e+00 -6.1146513441190455e+00 -6.1303661622874071e+00 -6.1801293218131264e+00 -6.1807239040995423e+00 -2.3858223949648889e+00 -2.3937299497002784e+00 -2.3851654953579917e+00 -2.3929795785192742e+00 -2.4389258177587334e+00
 -2.4380267125904052e+00 -6.2723202209528317e+00 -6.2730511161422413e+00 -6.2714284997794953e+00 -6.4110765173914395e+00 -6.4103854351777576e+00 -6.4095260603807533e+00 -2.5593611961317149e+00 -2.5521501578890273e+00 -2.5463859503680957e+00
 -2.7660301005034329e+00 -2.7591696144430764e+00 -2.7537028299360085e+00 -6.2711559745821992e+00 -6.2717089037453340e+00 -6.4092393383954391e+00 -6.4097605561756135e+00 -2.5435598377761881e+00 -2.5425589597428209e+00 -2.7509065252302496e+00
 -2.7498360321342710e+00 -1.4548403275646451e+00 -1.4483471419101814e+00 -1.4595589561259412e+00 -1.4433996456085134e+00 -5.1692273891544405e-01 -5.0860671458070550e-01 -5.1471663404536128e-01 -4.7742396662418074e-01 3.5028724295879266e-01
 3.5136360740527395e-01 3.5106262809334265e-01 3.8029284008693670e-01 4.2328867897630917e-01 4.2330799478956299e-01 4.2330731895466983e-01 4.3839641629523074e-01 -1.4443564494346821e+00 -1.4372235125433421e+00 -5.0536193350004055e-01
 -4.7102306586595855e-01 3.5153152900792567e-01 3.8049442601196615e-01 4.2330838713829627e-01 4.3840119613740075e-01 -1.4939590292291705e+00 -1.4754917771280496e+00 -5.3262979292402723e-01 -4.9185711883304783e-01 3.5018350151932243e-01