DF-ISE text

Info {
  version = 1.0
  type    = dataset
  dimension   = 3
  nb_vertices = 5293
  nb_edges    = 23303
  nb_faces    = 30690
  nb_elements = 12980
  nb_regions  = 3
  datasets    = [ "ElectrostaticPotential" "ContactExternalVoltage" "ContactCurrentFlux" "ContactCharge" "eQuasiFermiPotential" "hQuasiFermiPotential" "QuasiFermiPotential" "LatticeTemperature" ]
  functions   = [ ElectrostaticPotential ContactExternalVoltage ContactCurrentFlux ContactCharge eQuasiFermiPotential hQuasiFermiPotential QuasiFermiPotential LatticeTemperature ]
}

Data {

  Dataset ("ElectrostaticPotential") {
    function  = ElectrostaticPotential
    type      = scalar
    dimension = 1
    location  = vertex
    validity  = [ "substrate" ]
    Values (5293) {
 -3.0037888985310792e+02 -3.0037067152461259e+02 -3.0037888985310792e+02 -3.0037888985310792e+02 -3.0037067207240818e+02 -3.0037067166155731e+02 -3.0039459903196263e+02 -3.0038638155217791e+02 -3.0035550506413125e+02 -3.0035550613803360e+02
 -3.0035550533241826e+02 -3.0037121854899505e+02 -3.0032326086359723e+02 -3.0032327010700226e+02 -3.0032326285690976e+02 -3.0033906902841142e+02 -3.0023209723447280e+02 -3.0023423195310062e+02 -3.0023248984192475e+02 -3.0027830328877519e+02
 -2.9912574763383316e+02 -2.9914238521782278e+02 -2.9912837439639998e+02 -2.9921151796171114e+02 -2.9795263742126713e+02 -2.9797620300106036e+02 -2.9795587496555004e+02 -2.9801841124434094e+02 -2.9677652900754543e+02 -2.9680318157731409e+02
 -2.9677970540357779e+02 -2.9682497400586777e+02 -3.0037888985310792e+02 -3.0037067166156083e+02 -3.0039459903196263e+02 -3.0038638168911604e+02 -3.0035550533250682e+02 -3.0037121881660926e+02 -3.0032326299444770e+02 -3.0033907026835573e+02
 -3.0023255085993969e+02 -3.0027842063382229e+02 -2.9912897566769948e+02 -2.9921618369201451e+02 -2.9795685312842545e+02 -2.9802430538778395e+02 -2.9678091422256210e+02 -2.9683073075055131e+02 -2.8731439073846462e+02 -2.8732331409165289e+02
 -2.8731485574251502e+02 -2.8732500908298738e+02 -2.8731506243844092e+02 -2.8732572223560635e+02 -3.0037888985310792e+02 -3.0037067207241182e+02 -3.0039459903196263e+02 -3.0038638158641396e+02 -3.0035550613835011e+02 -3.0037121861591680e+02
 -3.0032327066357578e+02 -3.0033906938373804e+02 -3.0023447937700320e+02 -3.0027837283719839e+02 -2.9914504177031370e+02 -2.9921517200578893e+02 -2.9798095852152727e+02 -2.9802450375048500e+02 -2.9680963349119406e+02 -2.9683276022027599e+02
 -3.0039459903196263e+02 -3.0038638172335254e+02 -3.0037121888353352e+02 -3.0033907062726360e+02 -3.0027849338669665e+02 -2.9922007386893370e+02 -2.9803079761219311e+02 -2.9683901613373473e+02 -2.8732879385798861e+02 -2.8733067353638370e+02
 -2.8733147514303602e+02 -3.0037888985310792e+02 -3.0037067166155686e+02 -3.0039459903196263e+02 -3.0038638153725304e+02 -3.0035550533238700e+02 -3.0037121851981988e+02 -3.0032326280212720e+02 -3.0033906887490679e+02 -3.0023246550440041e+02
 -3.0027827551523939e+02 -2.9912813300548669e+02 -2.9921045904400955e+02 -2.9795545368719468e+02 -2.9801686748749233e+02 -2.9677914700038724e+02 -2.9682321706826940e+02 -3.0037888985310792e+02 -3.0037067150968687e+02 -3.0037717774777701e+02
 -3.0036895992238482e+02 -3.0035550503481517e+02 -3.0035379351601489e+02 -3.0032326051375736e+02 -3.0032152633293197e+02 -3.0023199618905011e+02 -3.0022319636052140e+02 -2.9912507896046782e+02 -2.9913134237842280e+02 -2.9795167190236731e+02
 -2.9796852516272821e+02 -2.9677540837305884e+02 -2.9679812077756935e+02 -2.8731455730571014e+02 -2.8732446395135918e+02 -2.8731393182557019e+02 -2.8732238482085330e+02 -3.0039459903196263e+02 -3.0038638157148904e+02 -3.0037121858674101e+02
 -3.0033906922896011e+02 -3.0027834392067098e+02 -2.9921403205703473e+02 -2.9802281267736265e+02 -2.9683080622183996e+02 -3.0037717774777701e+02 -3.0036895991434056e+02 -3.0035379350072429e+02 -3.0032152701211010e+02 -3.0022350331835372e+02
 -2.9913378519022478e+02 -2.9797293252134671e+02 -2.9680415933723282e+02 -2.8733004253569823e+02 -2.8732772851607569e+02 -2.7781583252496961e+02 -2.7781847705657447e+02 -2.7781587942742902e+02 -2.7781860719656743e+02 -2.7781588516931396e+02
 -2.7781865315266691e+02 -2.6829675681588031e+02 -2.6829760923188263e+02 -2.6829675900368670e+02 -2.6829761690025117e+02 -2.6829675234622715e+02 -2.6829761229840244e+02 -2.7782125804514874e+02 -2.7782140689855402e+02 -2.7782145982433491e+02
 -2.6829887755593319e+02 -2.6829888663051838e+02 -2.6829888158249122e+02 -2.7781578250490492e+02 -2.7781846907642495e+02 -2.7781569224293673e+02 -2.7781827191672664e+02 -2.6829673173973418e+02 -2.6829758297155786e+02 -2.6829671800647384e+02
 -2.6829756063770049e+02 -2.7782124600019642e+02 -2.7782101947733145e+02 -2.6829884748694695e+02 -2.6829882149658459e+02 -3.0037888985310792e+02 -3.0037067207241188e+02 -3.0039459903196263e+02 -3.0038638158641407e+02 -3.0035550613841156e+02
 -3.0037121861591982e+02 -3.0032327077651524e+02 -3.0033906939370746e+02 -3.0023452961326677e+02 -3.0027838170805728e+02 -2.9914558763701524e+02 -2.9921572811223319e+02 -2.9798197286932327e+02 -2.9802556579710904e+02 -2.9681106509140204e+02
 -2.9683426488882867e+02 -3.0039459903196263e+02 -3.0038638172335260e+02 -3.0037121888353653e+02 -3.0033907063736763e+02 -3.0027850238449025e+02 -2.9922064348366359e+02 -2.9803188569091679e+02 -2.9684055684755663e+02 -2.8733107917125255e+02
 -2.8733297702527051e+02 -2.8733378602930452e+02 -3.0037888985310792e+02 -3.0037067207241188e+02 -3.0039459903196263e+02 -3.0038638158641407e+02 -3.0035550613842179e+02 -3.0037121861592027e+02 -3.0032327079526624e+02 -3.0033906939528305e+02
 -3.0023453795408443e+02 -3.0027838311074078e+02 -2.9914567845790333e+02 -2.9921581611274996e+02 -2.9798214308945944e+02 -2.9802573641915507e+02 -2.9681130837556583e+02 -2.9683451104617586e+02 -3.0039459903196263e+02 -3.0038638172335260e+02
 -3.0037121888353693e+02 -3.0033907063893537e+02 -3.0027850378132871e+02 -2.9922073200152079e+02 -2.9803205748573430e+02 -2.9684080477413823e+02 -2.8733158202775275e+02 -2.8733348114174430e+02 -2.8733429019149605e+02 -3.0039459903196263e+02
 -3.0038638157148915e+02 -3.0037121858674402e+02 -3.0033906923882137e+02 -3.0027835269122329e+02 -2.9921457976077807e+02 -2.9802385808505943e+02 -2.9683228708076257e+02 -3.0037717774777701e+02 -3.0036895991434056e+02 -3.0035379350082746e+02
 -3.0032152718815695e+02 -3.0022357585716935e+02 -2.9913432944317117e+02 -2.9797392545760709e+02 -2.9680555391912822e+02 -2.8733232641422262e+02 -2.8732998506852380e+02 -3.0039459903196263e+02 -3.0038638157148915e+02 -3.0037121858674442e+02
 -3.0033906924039019e+02 -3.0027835408720546e+02 -2.9921466698560437e+02 -2.9802402708674674e+02 -2.9683253082720080e+02 -3.0037717774777701e+02 -3.0036895991434056e+02 -3.0035379350084486e+02 -3.0032152721788651e+02 -3.0022358810694345e+02
 -2.9913442150308202e+02 -2.9797409461142797e+02 -2.9680579420837211e+02 -2.8733282727344630e+02 -2.8733048328337287e+02 -2.7782283967017577e+02 -2.7782299072864254e+02 -2.7782304320646818e+02 -2.6829974682293152e+02 -2.6829975596670965e+02
 -2.6829975031453750e+02 -2.7782321296096279e+02 -2.7782336413400645e+02 -2.7782341624199114e+02 -2.6829994570416966e+02 -2.6829995481160609e+02 -2.6829994896508754e+02 -2.7782282248513297e+02 -2.7782259058653773e+02 -2.6829971466396745e+02
 -2.6829968769755715e+02 -2.7782319435970123e+02 -2.7782296170349571e+02 -2.6829991298176753e+02 -2.6829988583220239e+02 -2.5876110555249772e+02 -2.5876141093235532e+02 -2.5876110494807085e+02 -2.5876141063133554e+02 -2.5876110219535570e+02
 -2.5876140779268206e+02 -2.4920999513784034e+02 -2.4921010781896427e+02 -2.4920999489213108e+02 -2.4921010757339735e+02 -2.4920999419651196e+02 -2.4921010683306429e+02 -2.5876197030725638e+02 -2.5876197002724842e+02 -2.5876196686323834e+02
 -2.4921034376242721e+02 -2.4921034349612222e+02 -2.4921034267906708e+02 -2.5876109779929294e+02 -2.5876140239252737e+02 -2.5876109542386519e+02 -2.5876139924254471e+02 -2.4920999336401169e+02 -2.4921010590008422e+02 -2.4920999297574880e+02
 -2.4921010545077885e+02 -2.5876196067269359e+02 -2.5876195703324197e+02 -2.4921034163439435e+02 -2.4921034112748168e+02 -2.3006254441101424e+02 -2.3006257799097031e+02 -2.3006254438385912e+02 -2.3006257796273530e+02 -2.3006254431507023e+02
 -2.3006257789033577e+02 -2.3006265888922766e+02 -2.3006265885872122e+02 -2.3006265878009793e+02 -2.3006254424180108e+02 -2.3006257781213222e+02 -2.3006254421004226e+02 -2.3006257777790256e+02 -2.3006265869466512e+02 -2.3006265865712899e+02
 -2.5876239799139580e+02 -2.5876239766011884e+02 -2.5876239427817910e+02 -2.4921053919490987e+02 -2.4921053891102895e+02 -2.4921053804344587e+02 -2.5876248506372724e+02 -2.5876248471123495e+02 -2.5876248126282024e+02 -2.4921057578446852e+02
 -2.4921057549455423e+02 -2.4921057461089850e+02 -2.5876238774674061e+02 -2.5876238392601101e+02 -2.4921053693728729e+02 -2.4921053640149145e+02 -2.5876247464438546e+02 -2.5876247078118013e+02 -2.4921057348659477e+02 -2.4921057294265083e+02
 -2.3006274523605614e+02 -2.3006274520382061e+02 -2.3006274512075751e+02 -2.3006279841839265e+02 -2.3006279838554684e+02 -2.3006279830095446e+02 -2.3006274503051839e+02 -2.3006274499088036e+02 -2.3006279820910817e+02 -2.3006279816878131e+02
 -2.1085541291969631e+02 -2.1085544679947731e+02 -2.1085541291701014e+02 -2.1085544679669471e+02 -2.1085541291038598e+02 -2.1085544678981981e+02 -2.1085554020412732e+02 -2.1085554020115958e+02 -2.1085554019381794e+02 -2.1085541290352461e+02
 -2.1085544678267746e+02 -2.1085541290056815e+02 -2.1085544677959700e+02 -2.1085554018618092e+02 -2.1085554018288724e+02 -1.9158859742515546e+02 -1.9158866454661381e+02 -1.9158859742484483e+02 -1.9158866454629396e+02 -1.9158859742405039e+02
 -1.9158866454548169e+02 -1.9158885510659786e+02 -1.9158885510626331e+02 -1.9158885510541552e+02 -1.9158859742314860e+02 -1.9158866454456268e+02 -1.9158859742269661e+02 -1.9158866454410528e+02 -1.9158885510446052e+02 -1.9158885510398824e+02
 -2.1085567197288989e+02 -2.1085567196977368e+02 -2.1085567196206517e+02 -2.1085581550084717e+02 -2.1085581549766587e+02 -2.1085581548979789e+02 -2.1085567195404988e+02 -2.1085567195059619e+02 -2.1085581548161994e+02 -2.1085581547809815e+02
 -1.9158913872172167e+02 -1.9158913872137259e+02 -1.9158913872048947e+02 -1.9158947088044081e+02 -1.9158947088007460e+02 -1.9158947087914979e+02 -1.9158913871949906e+02 -1.9158913871901225e+02 -1.9158947087811714e+02 -1.9158947087761291e+02
 -1.7226183186085674e+02 -1.7226197544185024e+02 -1.7226183186086971e+02 -1.7226197544186044e+02 -1.7226183186085868e+02 -1.7226197544184737e+02 -1.7226238469117544e+02 -1.7226238469118371e+02 -1.7226238469116635e+02 -1.7226183186074127e+02
 -1.7226197544172911e+02 -1.7226183186061127e+02 -1.7226197544160058e+02 -1.7226238469104416e+02 -1.7226238469091419e+02 -1.5287450448308510e+02 -1.5287481049832695e+02 -1.5287450448430579e+02 -1.5287481049954562e+02 -1.5287450448720975e+02
 -1.5287481050244895e+02 -1.5287568407514689e+02 -1.5287568407636434e+02 -1.5287568407926528e+02 -1.5287450449000431e+02 -1.5287481050524406e+02 -1.5287450449107621e+02 -1.5287481050631777e+02 -1.5287568408205831e+02 -1.5287568408313138e+02
 -1.7226299819930836e+02 -1.7226299819931239e+02 -1.7226299819928499e+02 -1.7226372348507874e+02 -1.7226372348506899e+02 -1.7226372348500777e+02 -1.7226299819915300e+02 -1.7226299819901919e+02 -1.7226372348484165e+02 -1.7226372348469386e+02
 -1.5287699740111026e+02 -1.5287699740232205e+02 -1.5287699740520935e+02 -1.5287855586427591e+02 -1.5287855586546692e+02 -1.5287855586830375e+02 -1.5287699740798911e+02 -1.5287699740905697e+02 -1.5287855587103263e+02 -1.5287855587207957e+02
 -3.0037888985310792e+02 -3.0037067207241188e+02 -3.0039459903196263e+02 -3.0038638158641407e+02 -3.0035550613840553e+02 -3.0037121861591959e+02 -3.0032327076544647e+02 -3.0033906939279495e+02 -3.0023452468954144e+02 -3.0027838089570315e+02
 -2.9914553396857218e+02 -2.9921567713994017e+02 -2.9798187142075642e+02 -2.9802546605177042e+02 -2.9681091802911999e+02 -2.9683411879394532e+02 -3.0039459903196263e+02 -3.0038638172335260e+02 -3.0037121888353630e+02 -3.0033907063646819e+02
 -3.0027850158304977e+02 -2.9922059268373022e+02 -2.9803178615280268e+02 -2.9684041094387879e+02 -2.8733068148575177e+02 -2.8733257941306601e+02 -2.8733338838663155e+02 -3.0037888985310792e+02 -3.0037067207241182e+02 -3.0039459903196263e+02
 -3.0038638158641396e+02 -3.0035550613832845e+02 -3.0037121861591595e+02 -3.0032327062401555e+02 -3.0033906938050035e+02 -3.0023446178210838e+02 -3.0027836995542054e+02 -2.9914485113022425e+02 -2.9921499139520375e+02 -2.9798060334843080e+02
 -2.9802415513978650e+02 -2.9680912845145366e+02 -2.9683225908367837e+02 -3.0039459903196263e+02 -3.0038638172335254e+02 -3.0037121888353255e+02 -3.0033907062407377e+02 -3.0027849054517196e+02 -2.9921989395807771e+02 -2.9803044987958901e+02
 -2.9683851584855933e+02 -2.8732776741735415e+02 -2.8732964742448689e+02 -2.8733044898743537e+02 -3.0039459903196263e+02 -3.0038638157148915e+02 -3.0037121858674374e+02 -3.0033906923790028e+02 -3.0027835187158411e+02 -2.9921452854596060e+02
 -2.9802375795639711e+02 -2.9683214051640897e+02 -3.0037717774777701e+02 -3.0036895991434056e+02 -3.0035379350081689e+02 -3.0032152717023951e+02 -3.0022356847424055e+02 -2.9913427388912504e+02 -2.9797382254302636e+02 -2.9680540571677710e+02
 -2.8733192857643172e+02 -2.8732958702910986e+02 -3.0039459903196263e+02 -3.0038638157148904e+02 -3.0037121858674010e+02 -3.0033906922569025e+02 -3.0027834101181327e+02 -2.9921385051944196e+02 -2.9802246259968609e+02 -2.9683030329203598e+02
 -3.0037717774777701e+02 -3.0036895991434051e+02 -3.0035379350068644e+02 -3.0032152694780950e+02 -3.0022347682718191e+02 -2.9913358749100735e+02 -2.9797257174789922e+02 -2.9680364989058035e+02 -2.8732901567740856e+02 -2.8732670088257089e+02
 -2.7782242184473444e+02 -2.7782257290167922e+02 -2.7782262535366664e+02 -2.6829941188974300e+02 -2.6829942103054390e+02 -2.6829941536869489e+02 -2.7782031937426149e+02 -2.7782046823634920e+02 -2.7782052109709127e+02 -2.6829818329600408e+02
 -2.6829819236429825e+02 -2.6829818729196660e+02 -2.7782240458263442e+02 -2.7782217265173455e+02 -2.6829937970535212e+02 -2.6829935273243507e+02 -2.7782030711703743e+02 -2.7782008048419624e+02 -2.6829815316093402e+02 -2.6829812715136586e+02
 -3.0037888985310792e+02 -3.0037067206494498e+02 -3.0039459903196263e+02 -3.0038638154844637e+02 -3.0035550612330547e+02 -3.0037121854169698e+02 -3.0032326980601857e+02 -3.0033906897812869e+02 -3.0023412540439921e+02 -3.0027828583121419e+02
 -2.9914143259013639e+02 -2.9921062239559660e+02 -2.9797460295711403e+02 -2.9801684615589477e+02 -2.9680108283328093e+02 -2.9682289406672663e+02 -3.0039459903196263e+02 -3.0038638168538461e+02 -3.0037121880931147e+02 -3.0033907021837234e+02
 -3.0027840342334667e+02 -2.9921529213086819e+02 -2.9802274512617095e+02 -2.9682865531238292e+02 -2.8732104709543114e+02 -2.8732274353626104e+02 -2.8732345690434016e+02 -3.0037717774777707e+02 -3.0036895927525643e+02 -3.0037717774777707e+02
 -3.0036895942294865e+02 -3.0035379224472877e+02 -3.0035379253446251e+02 -3.0032151159963900e+02 -3.0032151428497019e+02 -3.0021929496283212e+02 -3.0021990707470974e+02 -2.9911086211236858e+02 -2.9911362658382586e+02 -2.9793999502819310e+02
 -2.9794331493011128e+02 -2.9676589261242430e+02 -2.9676911152644618e+02 -3.0037717774777707e+02 -3.0036895942295274e+02 -3.0035379253461775e+02 -3.0032151452311473e+02 -3.0022000497663851e+02 -2.9911425819705704e+02 -2.9794431568133621e+02
 -2.9677033561495813e+02 -2.8731005257000038e+02 -2.8731052069238297e+02 -2.8731072846015019e+02 -3.0039459903196263e+02 -3.0038638153352150e+02 -3.0037121851252169e+02 -3.0033906882445774e+02 -3.0027825791991330e+02 -2.9920955964966481e+02
 -2.9801529683456317e+02 -2.9682113079356270e+02 -3.0037717774777701e+02 -3.0036895991433579e+02 -3.0035379350004246e+02 -3.0032152587973525e+02 -3.0022303695859671e+02 -2.9913035267710831e+02 -2.9796689929899333e+02 -2.9679600470988606e+02
 -2.8732219645921401e+02 -2.8732011456463573e+02 -3.0037717774777707e+02 -3.0036895942294814e+02 -3.0035379253440465e+02 -3.0032151418945739e+02 -3.0021986777238067e+02 -2.9911337106477606e+02 -2.9794288098506308e+02 -2.9676854208701405e+02
 -3.0037717774777707e+02 -3.0036895925915911e+02 -3.0035379221301253e+02 -3.0032151107841509e+02 -3.0021913484982281e+02 -2.9911015004306267e+02 -2.9793899793053646e+02 -2.9676474967471836e+02 -2.8731021951582096e+02 -2.8730958933829424e+02
 -2.7781686082965274e+02 -2.7781699104779545e+02 -2.7781703690622112e+02 -2.6829655659708857e+02 -2.6829656425894575e+02 -2.6829655961465778e+02 -2.7781362529478275e+02 -2.7781367238668878e+02 -2.7781367806827785e+02 -2.6829549700464156e+02
 -2.6829549919059150e+02 -2.6829549248311781e+02 -2.7781685244697377e+02 -2.7781665497819642e+02 -2.6829653021346360e+02 -2.6829650783503547e+02 -2.7781357482810722e+02 -2.7781348407838476e+02 -2.6829547177065490e+02 -2.6829545796615776e+02
 -2.5876217036784300e+02 -2.5876217003545014e+02 -2.5876216665052931e+02 -2.4921041439326578e+02 -2.4921041410906426e+02 -2.4921041324067767e+02 -2.5876151955681718e+02 -2.5876151927417737e+02 -2.5876151610279902e+02 -2.4921010285348879e+02
 -2.4921010258636204e+02 -2.4921010176719565e+02 -2.5876216011572518e+02 -2.5876215629346683e+02 -2.4921041213367278e+02 -2.4921041159751081e+02 -2.5876150990351130e+02 -2.5876150625991352e+02 -2.4921010072019914e+02 -2.4921010021220974e+02
 -2.3006280000291187e+02 -2.3006279997058789e+02 -2.3006279988730458e+02 -2.3006275844641112e+02 -2.3006275841559929e+02 -2.3006275833618460e+02 -2.3006279979683384e+02 -2.3006279975709447e+02 -2.3006275824984766e+02 -2.3006275821185505e+02
 -2.5876077074415298e+02 -2.5876077043872323e+02 -2.5876076758655955e+02 -2.4920977721500907e+02 -2.4920977696773673e+02 -2.4920977622275396e+02 -2.5876037882494722e+02 -2.5876037821486426e+02 -2.5876037544301676e+02 -2.4920962846331145e+02
 -2.4920962821469462e+02 -2.4920962751022302e+02 -2.5876076216875691e+02 -2.5876075900934723e+02 -2.4920977528396699e+02 -2.4920977483120424e+02 -2.5876037101777069e+02 -2.5876036862097783e+02 -2.4920962666336715e+02 -2.4920962626125589e+02
 -2.3006270572547129e+02 -2.3006270569633097e+02 -2.3006270562138613e+02 -2.3006268149721555e+02 -2.3006268146806042e+02 -2.3006268139285382e+02 -2.3006270553970899e+02 -2.3006270550304481e+02 -2.3006268130790593e+02 -2.3006268126312258e+02
 -2.1085594621723786e+02 -2.1085594621405593e+02 -2.1085594620618295e+02 -2.1085604668954582e+02 -2.1085604668632146e+02 -2.1085604667830822e+02 -2.1085594619799292e+02 -2.1085594619446186e+02 -2.1085604666989022e+02 -2.1085604666619165e+02
 -1.9158980045882279e+02 -1.9158980045840997e+02 -1.9158980045736718e+02 -1.9159007780460917e+02 -1.9159007780402214e+02 -1.9159007780251295e+02 -1.9158980045620694e+02 -1.9158980045564491e+02 -1.9159007780078730e+02 -1.9159007779991424e+02
 -2.1085610820700259e+02 -2.1085610820338835e+02 -2.1085610819415015e+02 -2.1085612865537726e+02 -2.1085612865077454e+02 -2.1085612863792863e+02 -2.1085610818371734e+02 -2.1085610817825423e+02 -2.1085612861946950e+02 -2.1085612860297937e+02
 -1.9159026203268459e+02 -1.9159026203153960e+02 -1.9159026202837921e+02 -1.9159032650805500e+02 -1.9159032650583481e+02 -1.9159032649882411e+02 -1.9159026202417985e+02 -1.9159026202131849e+02 -1.9159032648620820e+02 -1.9159032647158983e+02
 -1.7226445053601481e+02 -1.7226445053595336e+02 -1.7226445053576199e+02 -1.7226506830154113e+02 -1.7226506830129350e+02 -1.7226506830060646e+02 -1.7226445053545609e+02 -1.7226445053524543e+02 -1.7226506829970543e+02 -1.7226506829917111e+02
 -1.5288012459175789e+02 -1.5288012459288200e+02 -1.5288012459555182e+02 -1.5288146270633843e+02 -1.5288146270725349e+02 -1.5288146270937247e+02 -1.5288012459810409e+02 -1.5288012459907301e+02 -1.5288146271127457e+02 -1.5288146271189677e+02
 -1.7226548180087326e+02 -1.7226548180005386e+02 -1.7226548179768128e+02 -1.7226562713790523e+02 -1.7226562713600347e+02 -1.7226562712975360e+02 -1.7226548179426678e+02 -1.7226548179170305e+02 -1.7226562711778175e+02 -1.7226562710280319e+02
 -1.5288236108243890e+02 -1.5288236108275987e+02 -1.5288236108313887e+02 -1.5288267737099767e+02 -1.5288267737022630e+02 -1.5288267736669627e+02 -1.5288236108246909e+02 -1.5288236108101432e+02 -1.5288267735732902e+02 -1.5288267734275871e+02
 -1.3342531572214358e+02 -1.3342596204733027e+02 -1.3342531573676851e+02 -1.3342596206195716e+02 -1.3342531577203397e+02 -1.3342596209723126e+02 -1.3342781120142044e+02 -1.3342781121605131e+02 -1.3342781125133558e+02 -1.3342531580718884e+02
 -1.3342596213239591e+02 -1.3342531582166089e+02 -1.3342596214687339e+02 -1.3342781128651075e+02 -1.3342781130099280e+02 -1.1391154261247270e+02 -1.1391288853343745e+02 -1.1391154277827596e+02 -1.1391288869931083e+02 -1.1391154317856829e+02
 -1.1391288909977619e+02 -1.1391675482965083e+02 -1.1391675499566912e+02 -1.1391675539648502e+02 -1.1391154357881912e+02 -1.1391288950020119e+02 -1.1391154374453531e+02 -1.1391288966599079e+02 -1.1391675579726108e+02 -1.1391675596319638e+02
 -1.3343060279317029e+02 -1.3343060280778147e+02 -1.3343060284301828e+02 -1.3343393392595905e+02 -1.3343393394047871e+02 -1.3343393397549409e+02 -1.3343060287814626e+02 -1.3343060289260904e+02 -1.3343393401040035e+02 -1.3343393402477150e+02
 -1.1392263627432337e+02 -1.1392263644031364e+02 -1.1392263684106211e+02 -1.1392972711467772e+02 -1.1392972727995489e+02 -1.1392972767898135e+02 -1.1392263724177133e+02 -1.1392263740767930e+02 -1.1392972807796829e+02 -1.1392972824316313e+02
 -9.4327583493039867e+01 -9.4330314874288135e+01 -9.4327585363367746e+01 -9.4330316745707705e+01 -9.4327589880468310e+01 -9.4330321265450365e+01 -9.4338219215170128e+01 -9.4338221089217896e+01 -9.4338225615311643e+01 -9.4327594399981876e+01
 -9.4330325787611244e+01 -9.4327596272674086e+01 -9.4330327661402279e+01 -9.4338230143831808e+01 -9.4338232020259412e+01 -7.4662300079571452e+01 -7.4667576097661424e+01 -7.4662321147836494e+01 -7.4667597180843245e+01 -7.4662372070997179e+01
 -7.4667648140139818e+01 -7.4683050362624613e+01 -7.4683071485135315e+01 -7.4683122539581703e+01 -7.4662423080026315e+01 -7.4667699185471122e+01 -7.4662444234127946e+01 -7.4667720354656808e+01 -7.4683173680342279e+01 -7.4683194889135919e+01
 -9.4350413524823011e+01 -9.4350415400615901e+01 -9.4350419930928666e+01 -9.4365401005835224e+01 -9.4365402876600996e+01 -9.4365407394780561e+01 -9.4350424463676433e+01 -9.4350426341857911e+01 -9.4365411915400003e+01 -9.4365413788559493e+01
 -7.4707544671177260e+01 -7.4707565837022969e+01 -7.4707616996299166e+01 -7.4738744628215528e+01 -7.4738765779448784e+01 -7.4738816903657394e+01 -7.4707668242183843e+01 -7.4707689494606754e+01 -7.4738868114766248e+01 -7.4738889352868554e+01
 -5.4894720885840655e+01 -5.4903956220724886e+01 -5.4894957538868574e+01 -5.4904193062092006e+01 -5.4895530884032610e+01 -5.4904766866763239e+01 -5.4931711964503535e+01 -5.4931949328916758e+01 -5.4932524403534472e+01 -5.4896107148591661e+01
 -5.4905343597329356e+01 -5.4896346722334599e+01 -5.4905583365863563e+01 -5.4933102413933661e+01 -5.4933342715361142e+01 -4.4959453307261370e+01 -4.4962421792769547e+01 -4.4960603725966735e+01 -4.4970545991552669e+01 -4.4971697385970074e+01
 -4.4963564442589302e+01 -4.4963407542033558e+01 -4.4974503650621628e+01 -4.4966349041718459e+01 -3.4976381110603732e+01 -3.4981097206293605e+01 -3.4979387934810269e+01 -3.4984104672255370e+01 -3.4988496062981582e+01 -3.4993216204771123e+01
 -3.4992742967954733e+01 -3.4995752417708687e+01 -3.5004872978219268e+01 -4.4984813980259069e+01 -4.5004620201319234e+01 -4.5005774295251122e+01 -4.4985958489304210e+01 -4.5008587178063564e+01 -4.4988747692900965e+01 -3.5004130890737905e+01
 -3.5008855299985790e+01 -3.5026844771511641e+01 -3.5031575851877427e+01 -3.5020522970956407e+01 -3.5043260070651357e+01 -4.4966250320712788e+01 -4.4977348999927912e+01 -4.4969171907393019e+01 -4.4967439737396020e+01 -4.4978539512470917e+01
 -4.4970352857356019e+01 -3.5004780864211931e+01 -3.5007792840601816e+01 -3.5016923467892987e+01 -3.5009889744850142e+01 -3.5012902886994020e+01 -3.5022037933939011e+01 -4.5011439282024007e+01 -4.4991575317097336e+01 -4.5012632629621571e+01
 -4.4992758278612904e+01 -3.5032585134367558e+01 -3.5055339380213589e+01 -3.5037704632353794e+01 -3.5060466143245101e+01 -5.4977762465884965e+01 -5.4978000565840276e+01 -5.4978577423414983e+01 -5.5040436585530905e+01 -5.5040675094837013e+01
 -5.5041252950272657e+01 -5.4979157226826317e+01 -5.4979398273838378e+01 -5.5041833764881481e+01 -5.5042075234568223e+01 -4.5031075805082743e+01 -4.5063627945439357e+01 -4.5064786413241364e+01 -4.5032223818666019e+01 -4.5067609944072998e+01
 -4.5035021566532436e+01 -3.5057488412303009e+01 -3.5062227313815505e+01 -3.5097014323514685e+01 -3.5101764309999353e+01 -3.5073930766394710e+01 -3.5113494991412985e+01 -4.5103269579486025e+01 -4.5149222148362583e+01 -4.5150385569406282e+01
 -4.5104422586382384e+01 -4.5153221209848148e+01 -4.5107232499561050e+01 -3.5146613614578946e+01 -3.5151376530493479e+01 -3.5207424464754986e+01 -3.5212202720924139e+01 -3.5163139041527970e+01 -3.5224003211180722e+01 -4.5070472819268595e+01
 -4.5037857850004343e+01 -4.5071670663703550e+01 -4.5039044430642690e+01 -3.5086029792002869e+01 -3.5125621896192072e+01 -3.5091164856299528e+01 -3.5130768694045621e+01 -4.5156096405428762e+01 -4.5110081102400940e+01 -4.5157299413596249e+01
 -4.5111272830183665e+01 -3.5175298628912657e+01 -3.5236202087872805e+01 -3.5180459207011353e+01 -3.5241379313530160e+01 -2.4916672162836207e+01 -2.4919361569304428e+01 -2.4934958903200268e+01 -2.4937651211646006e+01 -2.4927724809803308e+01
 -2.4946024854302198e+01 -2.4981580865991990e+01 -2.4984287249251871e+01 -2.4992696320537270e+01 -1.4673172972483927e+01 -1.4672759702185189e+01 -1.4689409002650720e+01 -1.4673876399906478e+01 -1.4736922819526994e+01 -1.4689009403413362e+01
 -1.4737989891038781e+01 -1.4690107961719617e+01 -1.4737299516907179e+01 -1.4675827997443292e+01 -1.4692049003659115e+01 -1.4678547489288267e+01 -1.4742653561059573e+01 -1.4694774436255718e+01 -1.4739914170822736e+01 -1.4815093794568073e+01
 -1.4916727053806996e+01 -1.4814752342445059e+01 -1.4917847786231000e+01 -1.4815818128501110e+01 -1.4917028381889558e+01 -1.4817726678205894e+01 -1.4922657257790823e+01 -1.4820523181695613e+01 -1.4919752101380769e+01 -2.4942482923017543e+01
 -2.4960799845033282e+01 -2.4964648266722730e+01 -2.4982987822813495e+01 -2.5007518459749921e+01 -2.5029764824389719e+01 -1.4682908160185935e+01 -1.4699133838664851e+01 -1.4688334805760666e+01 -1.4752484146485108e+01 -1.4704572744457778e+01
 -1.4747017198111992e+01 -1.4695674042629401e+01 -1.4711914927801940e+01 -1.4704353726253020e+01 -1.4768571127887260e+01 -1.4720610352915987e+01 -1.4759840040811248e+01 -1.4824887927150350e+01 -1.4932660060747025e+01 -1.4830422640796524e+01
 -1.4927018697666080e+01 -1.4837787852889450e+01 -1.4948943711721588e+01 -1.4846596025445347e+01 -1.4940022725645763e+01 -2.5032078268783639e+01 -2.5034807285734967e+01 -2.5043264483349887e+01 -2.5054252271870066e+01 -2.5056992279998074e+01
 -2.5065472089511140e+01 -1.5031833330721149e+01 -1.5139962187965075e+01 -1.5031576906438177e+01 -1.5141344216738077e+01 -1.5032828562726809e+01 -1.5140156391101815e+01 -1.5034731715270997e+01 -1.5146492394326929e+01 -1.5037806780183864e+01
 -1.5143232150046639e+01 -1.5218818031098548e+01 -1.5247981646578454e+01 -1.5218679461092346e+01 -1.5249489654372997e+01 -1.5220155567371197e+01 -1.5248090162830513e+01 -1.5222023394492592e+01 -1.5254804340363172e+01 -1.5225428337886278e+01
 -1.5251339127456314e+01 -2.5058141905366288e+01 -2.5080451610435077e+01 -2.5080374331491601e+01 -2.5102711564046697e+01 -1.5042146181995331e+01 -1.5156749953085379e+01 -1.5047940603455856e+01 -1.5150791525156786e+01 -1.5055273635870256e+01
 -1.5173272389416345e+01 -1.5064350644922422e+01 -1.5164031636850030e+01 -1.5229688962555302e+01 -1.5265182998218224e+01 -1.5235776405189046e+01 -1.5259040622152964e+01 -1.5243011179117685e+01 -1.5281814475387526e+01 -1.5252380731809675e+01
 -1.5272390441119944e+01 -9.3444326422460318e+00 -9.3690136157286190e+00 -9.3452777846765613e+00 -9.3700428876398814e+00 -9.3432960238164142e+00 -9.3677127136244707e+00 -9.4483177396753231e+00 -9.4470680644417069e+00 -9.4455079192382456e+00
 -3.8227228283266106e+00 -3.8164970735158201e+00 -3.8415581962881631e+00 -3.8320974940257173e+00 -3.8104278433087000e+00 -3.8245324621419683e+00 -3.9193527464506133e+00 -3.9075581797450147e+00 -3.8981453434813229e+00 -9.3429696382095706e+00
 -9.3673012078930054e+00 -9.3438183621961617e+00 -9.3681170351786385e+00 -9.4449480473103851e+00 -9.4457094298684474e+00 -3.8070449284672487e+00 -3.8206696464490819e+00 -3.8057995356092982e+00 -3.8192854968330767e+00 -3.8935126026938756e+00
 -3.8918735382678307e+00 -9.5868242525227121e+00 -9.5882535818800445e+00 -9.5850946638981522e+00 -9.7978633355451876e+00 -9.7964500526647278e+00 -9.7948418496066125e+00 -4.0907804559327099e+00 -4.0765639448689548e+00 -4.0656258863020049e+00
 -4.4208419363375970e+00 -4.4051212783160123e+00 -4.3939749351636062e+00 -9.5844626238451607e+00 -9.5852261936614145e+00 -9.7943467243479212e+00 -9.7952373202112746e+00 -4.0604246796438916e+00 -4.0586333192716042e+00 -4.3889261950341281e+00
 -4.3873008506341593e+00 -2.4257861741852866e+00 -2.4143789291892452e+00 -2.4338775137610820e+00 -2.4087768955277524e+00 -1.0319003822374335e+00 -1.0153563374935490e+00 -1.0274327423439646e+00 -9.6985219771058462e-01 2.8603302561533600e-01
 2.9802888152758850e-01 2.9458985445559227e-01 3.7121571561608402e-01 4.2314390593049778e-01 4.2318806377293644e-01 4.2318029954668873e-01 4.3838585463100926e-01 -2.4073651788956982e+00 -2.3987367417404299e+00 -1.0090572487618661e+00
 -9.5953879640528483e-01 3.0004500176965770e-01 3.7184966861389157e-01 4.2319263438482557e-01 4.3839117134624855e-01 -2.4927980832365804e+00 -2.4622323440054172e+00 -1.0622236603368036e+00 -9.9519693100271933e-01 2.8461525509530183e-01