DF-ISE text

Info {
  version = 1.0
  type    = dataset
  dimension   = 3
  nb_vertices = 5293
  nb_edges    = 23303
  nb_faces    = 30690
  nb_elements = 12980
  nb_regions  = 3
  datasets    = [ "ElectrostaticPotential" "ContactExternalVoltage" "ContactCurrentFlux" "ContactCharge" "eQuasiFermiPotential" "hQuasiFermiPotential" "QuasiFermiPotential" "LatticeTemperature" ]
  functions   = [ ElectrostaticPotential ContactExternalVoltage ContactCurrentFlux ContactCharge eQuasiFermiPotential hQuasiFermiPotential QuasiFermiPotential LatticeTemperature ]
}

Data {

  Dataset ("ElectrostaticPotential") {
    function  = ElectrostaticPotential
    type      = scalar
    dimension = 1
    location  = vertex
    validity  = [ "substrate" ]
    Values (5293) {
 -4.0378889853107928e+01 -4.0370671524460050e+01 -4.0378889853107928e+01 -4.0378889853107928e+01 -4.0370672072255104e+01 -4.0370671661404664e+01 -4.0394599031962663e+01 -4.0386381552015862e+01 -4.0355505115488867e+01 -4.0355506186862335e+01
 -4.0355505383311709e+01 -4.0371218552543155e+01 -4.0323355551083857e+01 -4.0323360156702257e+01 -4.0323356693755230e+01 -4.0339082658603004e+01 -4.0274278426755984e+01 -4.0274368567119261e+01 -4.0274297184239614e+01 -4.0290445175000329e+01
 -4.0185705177686110e+01 -4.0188481501225063e+01 -4.0186199649008344e+01 -4.0211400581712795e+01 -4.0054295546811765e+01 -4.0060102838188548e+01 -4.0055163802837640e+01 -4.0074652560605884e+01 -3.9920840563235018e+01 -3.9928246800931568e+01
 -3.9921805756978650e+01 -3.9935733158967480e+01 -4.0378889853107928e+01 -4.0370671661408252e+01 -4.0394599031962663e+01 -4.0386381688953982e+01 -4.0355505383327539e+01 -4.0371218820123467e+01 -4.0323356697732748e+01 -4.0339083777047030e+01
 -4.0274298854444659e+01 -4.0290459610996514e+01 -4.0186286961384347e+01 -4.0211928705431632e+01 -4.0055401393525656e+01 -4.0076071695826521e+01 -3.9922151887932792e+01 -3.9937444187824305e+01 -3.8832110659354882e+01 -3.8834728471111411e+01
 -3.8832263669472660e+01 -3.8835310341276532e+01 -3.8832339219047249e+01 -3.8835556660248557e+01 -4.0378889853107928e+01 -4.0370672072258714e+01 -4.0394599031962663e+01 -4.0386381586251936e+01 -4.0355506186883240e+01 -4.0371218619444612e+01
 -4.0323360169969128e+01 -4.0339082940158569e+01 -4.0274374385527018e+01 -4.0290450425736331e+01 -4.0188789746289856e+01 -4.0211704862780316e+01 -4.0061038378512890e+01 -4.0075844282059087e+01 -3.9929717204171908e+01 -3.9937562911067445e+01
 -4.0394599031962663e+01 -4.0386381723190446e+01 -4.0371218887026451e+01 -4.0339084058739850e+01 -4.0290464962309386e+01 -4.0212243867109578e+01 -4.0077339917410065e+01 -3.9939400831322757e+01 -3.8836206202687450e+01 -3.8836845221801099e+01
 -3.8837120270617916e+01 -4.0378889853107928e+01 -4.0370671661404266e+01 -4.0394599031962663e+01 -4.0386381537091005e+01 -4.0355505383309669e+01 -4.0371218523376882e+01 -4.0323356692745726e+01 -4.0339082536407517e+01 -4.0274296745099647e+01
 -4.0290443390498311e+01 -4.0186176517716135e+01 -4.0211322280411572e+01 -4.0055097692666237e+01 -4.0074400982081023e+01 -3.9921704656755473e+01 -3.9935387084074016e+01 -4.0378889853107928e+01 -4.0370671509534368e+01 -4.0377177747777047e+01
 -4.0368959922236698e+01 -4.0355505086295118e+01 -4.0353793585999050e+01 -4.0323355425293080e+01 -4.0321645895360881e+01 -4.0274275853971012e+01 -4.0272592414926265e+01 -4.0185624184105130e+01 -4.0185883145801682e+01 -4.0054124829407463e+01
 -4.0058267541768465e+01 -3.9920618535696534e+01 -3.9927062698365816e+01 -3.8832201561570415e+01 -3.8835192998067896e+01 -3.8832013469794283e+01 -3.8834519867876558e+01 -4.0394599031962663e+01 -4.0386381571327000e+01 -4.0371218590278019e+01
 -4.0339082817919113e+01 -4.0290448606629475e+01 -4.0211622895916634e+01 -4.0075571778579295e+01 -3.9937181828916778e+01 -4.0377177747777047e+01 -4.0368959914192352e+01 -4.0353793570279905e+01 -4.0321645843770433e+01 -4.0272597734580145e+01
 -4.0186172042560862e+01 -4.0059142526169047e+01 -3.9928450015106179e+01 -3.8836709837281596e+01 -3.8835968263578643e+01 -3.7722067999591872e+01 -3.7722842208894868e+01 -3.7722085029383493e+01 -3.7722888468803845e+01 -3.7722091445486704e+01
 -3.7722909837984695e+01 -3.6595487621765720e+01 -3.6595734517013597e+01 -3.6595488904384951e+01 -3.6595737793126695e+01 -3.6595488149767263e+01 -3.6595738036053739e+01 -3.7723614707746172e+01 -3.7723667213928998e+01 -3.7723691651275715e+01
 -3.6596091089191290e+01 -3.6596094909179342e+01 -3.6596095246251558e+01 -3.7722064280854312e+01 -3.7722858331970237e+01 -3.7722037824099957e+01 -3.7722796948972984e+01 -3.6595483007071834e+01 -3.6595730373507706e+01 -3.6595479215633034e+01
 -3.6595723859561744e+01 -3.7723632124467770e+01 -3.7723562121645784e+01 -3.6596086341512077e+01 -3.6596078784050590e+01 -4.0378889853107928e+01 -4.0370672072258714e+01 -4.0394599031962663e+01 -4.0386381586252014e+01 -4.0355506186884512e+01
 -4.0371218619444996e+01 -4.0323360172314125e+01 -4.0339082940525074e+01 -4.0274375432656697e+01 -4.0290450747962481e+01 -4.0188845469478771e+01 -4.0211738915544693e+01 -4.0061213687410557e+01 -4.0076016774115672e+01 -3.9930003591939020e+01
 -3.9937861182162280e+01 -4.0394599031962663e+01 -4.0386381723190524e+01 -4.0371218887026835e+01 -4.0339084059104906e+01 -4.0290465283384925e+01 -4.0212277862974297e+01 -4.0077515945866494e+01 -3.9939706244657124e+01 -3.8836799223524778e+01
 -3.8837443251255465e+01 -3.8837720818075795e+01 -4.0378889853107928e+01 -4.0370672072258714e+01 -4.0394599031962663e+01 -4.0386381586252014e+01 -4.0355506186884725e+01 -4.0371218619445017e+01 -4.0323360172701094e+01 -4.0339082940581164e+01
 -4.0274375605461742e+01 -4.0290450797947834e+01 -4.0188854668893832e+01 -4.0211744206365339e+01 -4.0061242838941837e+01 -4.0076043899263745e+01 -3.9930051892409814e+01 -3.9937908990285770e+01 -4.0394599031962663e+01 -4.0386381723190524e+01
 -4.0371218887026849e+01 -4.0339084059159511e+01 -4.0290465332064677e+01 -4.0212283025976092e+01 -4.0077543020315282e+01 -3.9939754162361233e+01 -3.8836935606379427e+01 -3.8837579922905320e+01 -3.8837857560395918e+01 -4.0394599031962663e+01
 -4.0386381571327078e+01 -4.0371218590278403e+01 -4.0339082818282400e+01 -4.0290448925963396e+01 -4.0211656632718068e+01 -4.0075742158821633e+01 -3.9937476339495376e+01 -4.0377177747777047e+01 -4.0368959914192317e+01 -4.0353793570281397e+01
 -4.0321645846554183e+01 -4.0272598888544692e+01 -4.0186229018599555e+01 -4.0059314941901668e+01 -3.9928730052609183e+01 -3.8837303909692075e+01 -3.8836555410766728e+01 -4.0394599031962663e+01 -4.0386381571327078e+01 -4.0371218590278417e+01
 -4.0339082818338319e+01 -4.0290448975783356e+01 -4.0211661904306553e+01 -4.0075769101439356e+01 -3.9937523803863151e+01 -4.0377177747777047e+01 -4.0368959914192317e+01 -4.0353793570281674e+01 -4.0321645847021422e+01 -4.0272599082067032e+01
 -4.0186238575079045e+01 -4.0059344029254859e+01 -3.9928777917160502e+01 -3.8837439942387192e+01 -3.8836690877440340e+01 -3.7724046219980067e+01 -3.7724099470947152e+01 -3.7724124047298531e+01 -3.6596334985929047e+01 -3.6596338862938083e+01
 -3.6596339107954940e+01 -3.7724156894272106e+01 -3.7724210193854738e+01 -3.7724234717649423e+01 -3.6596399293395493e+01 -3.6596403167924038e+01 -3.6596403376855456e+01 -3.7724062832329913e+01 -3.7723991408747487e+01 -3.6596329831297268e+01
 -3.6596322021288934e+01 -3.7724173239529783e+01 -3.7724101634015121e+01 -3.6596394025078602e+01 -3.6596386171169641e+01 -3.5453550113987028e+01 -3.5453637861062774e+01 -3.5453550072647410e+01 -3.5453637945049465e+01 -3.5453549556315245e+01
 -3.5453637455039363e+01 -3.4296584347267327e+01 -3.4296616538105610e+01 -3.4296584300869576e+01 -3.4296616494917032e+01 -3.4296584155922439e+01 -3.4296616342659682e+01 -3.5453796508003791e+01 -3.5453796620626512e+01 -3.5453796079979618e+01
 -3.4296683838631758e+01 -3.4296683792595452e+01 -3.4296683624960302e+01 -3.5453548518742132e+01 -3.5453636142795538e+01 -3.5453547911508501e+01 -3.5453635301987852e+01 -3.4296583967349719e+01 -3.4296616128474014e+01 -3.4296583875344730e+01
 -3.4296616019415239e+01 -3.5453794571453805e+01 -3.5453793598042438e+01 -3.4296683384354012e+01 -3.4296683260748395e+01 -3.1937901437427580e+01 -3.1937910255473980e+01 -3.1937901431601098e+01 -3.1937910249473831e+01 -3.1937901416498967e+01
 -3.1937910233623111e+01 -3.1937931254513000e+01 -3.1937931248057382e+01 -3.1937931230871776e+01 -3.1937901399975225e+01 -3.1937910215920571e+01 -3.1937901392694204e+01 -3.1937910208011960e+01 -3.1937931211516343e+01 -3.1937931202824217e+01
 -3.5453919246965526e+01 -3.5453919353964523e+01 -3.5453918771172930e+01 -3.4296740807915171e+01 -3.4296740758531861e+01 -3.4296740580329931e+01 -3.5453950734895137e+01 -3.5453950838181136e+01 -3.5453950241967739e+01 -3.4296755318540548e+01
 -3.4296755267935495e+01 -3.4296755086333832e+01 -3.5453917183505659e+01 -3.5453916165191863e+01 -3.4296740325809303e+01 -3.4296740195393767e+01 -3.5453948634900193e+01 -3.5453947606671314e+01 -3.4296754827795667e+01 -3.4296754695527341e+01
 -3.1937953147178149e+01 -3.1937953140358285e+01 -3.1937953122211240e+01 -3.1937965757514828e+01 -3.1937965750557666e+01 -3.1937965732062050e+01 -3.1937953101781350e+01 -3.1937953092609838e+01 -3.1937965711259768e+01 -3.1937965701926849e+01
 -2.9519735601556697e+01 -2.9519742873668150e+01 -2.9519735600840843e+01 -2.9519742872930490e+01 -2.9519735599065680e+01 -2.9519742871098668e+01 -2.9519762735547697e+01 -2.9519762734769515e+01 -2.9519762732834330e+01 -2.9519735597219054e+01
 -2.9519742869188480e+01 -2.9519735596430429e+01 -2.9519742868371964e+01 -2.9519762730812861e+01 -2.9519762729947985e+01 -2.7042098917977992e+01 -2.7042112463482518e+01 -2.7042098917767234e+01 -2.7042112463268449e+01 -2.7042098917236668e+01
 -2.7042112462732160e+01 -2.7042150869428752e+01 -2.7042150869210772e+01 -2.7042150868665608e+01 -2.7042098916667925e+01 -2.7042112462159935e+01 -2.7042098916417043e+01 -2.7042112461908665e+01 -2.7042150868085169e+01 -2.7042150867830795e+01
 -2.9519790267287167e+01 -2.9519790266475457e+01 -2.9519790264456898e+01 -2.9519819505567455e+01 -2.9519819504733700e+01 -2.9519819502661083e+01 -2.9519790262348657e+01 -2.9519790261446847e+01 -2.9519819500497587e+01 -2.9519819499572520e+01
 -2.7042207894810520e+01 -2.7042207894588095e+01 -2.7042207894032298e+01 -2.7042274475998891e+01 -2.7042274475765058e+01 -2.7042274475181522e+01 -2.7042207893441383e+01 -2.7042207893182749e+01 -2.7042274474562515e+01 -2.7042274474292142e+01
 -2.4504941062248008e+01 -2.4504969804245583e+01 -2.4504941062100205e+01 -2.4504969804096238e+01 -2.4504941061716451e+01 -2.4504969803710345e+01 -2.4505051718711954e+01 -2.4505051718561599e+01 -2.4505051718173835e+01 -2.4504941061284715e+01
 -2.4504969803278254e+01 -2.4504941061085439e+01 -2.4504969803079604e+01 -2.4505051717740606e+01 -2.4505051717541786e+01 -2.1908140343407872e+01 -2.1908201528695539e+01 -2.1908140343505853e+01 -2.1908201528792368e+01 -2.1908140343708634e+01
 -2.1908201528993366e+01 -2.1908376204148791e+01 -2.1908376204244910e+01 -2.1908376204444611e+01 -2.1908140343850210e+01 -2.1908201529134391e+01 -2.1908140343881275e+01 -2.1908201529165773e+01 -2.1908376204584957e+01 -2.1908376204616314e+01
 -2.4505174492615389e+01 -2.4505174492462992e+01 -2.4505174492070495e+01 -2.4505319597779973e+01 -2.4505319597617238e+01 -2.4505319597199630e+01 -2.4505174491632850e+01 -2.4505174491432335e+01 -2.4505319596736619e+01 -2.4505319596525549e+01
 -2.1908638839567427e+01 -2.1908638839661421e+01 -2.1908638839856209e+01 -2.1908950544798444e+01 -2.1908950544881183e+01 -2.1908950545048725e+01 -2.1908638839992026e+01 -2.1908638840021670e+01 -2.1908950545157143e+01 -2.1908950545175450e+01
 -4.0378889853107928e+01 -4.0370672072258714e+01 -4.0394599031962663e+01 -4.0386381586252014e+01 -4.0355506186884426e+01 -4.0371218619444996e+01 -4.0323360172150750e+01 -4.0339082940501854e+01 -4.0274375359699647e+01 -4.0290450727271356e+01
 -4.0188841584453705e+01 -4.0211736725077934e+01 -4.0061201315196328e+01 -4.0076005501693892e+01 -3.9929982860585611e+01 -3.9937841081607651e+01 -4.0394599031962663e+01 -4.0386381723190524e+01 -4.0371218887026835e+01 -4.0339084059082566e+01
 -4.0290465263470303e+01 -4.0212275750389118e+01 -4.0077504823053523e+01 -3.9939686317364796e+01 -3.8836726831964292e+01 -3.8837370921647995e+01 -3.8837648515476523e+01 -4.0378889853107928e+01 -4.0370672072258678e+01 -4.0394599031962663e+01
 -4.0386381586251922e+01 -4.0355506186882778e+01 -4.0371218619444555e+01 -4.0323360169362189e+01 -4.0339082940072977e+01 -4.0274374115468227e+01 -4.0290450349943967e+01 -4.0188775385910446e+01 -4.0211696846962582e+01 -4.0060993304462720e+01
 -4.0075803455189657e+01 -3.9929643192067729e+01 -3.9937491425788764e+01 -4.0394599031962663e+01 -4.0386381723190432e+01 -4.0371218887026394e+01 -4.0339084058657619e+01 -4.0290464889475899e+01 -4.0212236148464427e+01 -4.0077299685385725e+01
 -3.9939330048734739e+01 -3.8836016092665162e+01 -3.8836655358637891e+01 -3.8836930517980349e+01 -4.0394599031962663e+01 -4.0386381571327078e+01 -4.0371218590278396e+01 -4.0339082818259023e+01 -4.0290448905133459e+01 -4.0211654428319655e+01
 -4.0075730851620037e+01 -3.9937456191322866e+01 -4.0377177747777047e+01 -4.0368959914192317e+01 -4.0353793570281283e+01 -4.0321645846353753e+01 -4.0272598805529618e+01 -4.0186224918049639e+01 -4.0059302401694445e+01 -3.9928709192624467e+01
 -3.8837231554911369e+01 -3.8836482979093617e+01 -4.0394599031962663e+01 -4.0386381571326986e+01 -4.0371218590277962e+01 -4.0339082817832917e+01 -4.0290448530308190e+01 -4.0211614826962169e+01 -4.0075530815735306e+01 -3.9937110156554773e+01
 -4.0377177747777047e+01 -4.0368959914192310e+01 -4.0353793570279322e+01 -4.0321645843024996e+01 -4.0272597426892794e+01 -4.0186156866958179e+01 -4.0059096799408493e+01 -3.9928375493385907e+01 -3.8836519889091669e+01 -3.8835778015258271e+01
 -3.7723967000093950e+01 -3.7724020256653397e+01 -3.7724044834321568e+01 -3.6596270484273333e+01 -3.6596274361532139e+01 -3.6596274605870683e+01 -3.7723434677259469e+01 -3.7723487205482598e+01 -3.7723511650420058e+01 -3.6595956388581030e+01
 -3.6595960209823879e+01 -3.6595960545462582e+01 -3.7723983609252556e+01 -3.7723912176109884e+01 -3.6596265327077795e+01 -3.6596257515630249e+01 -3.7723452089800581e+01 -3.7723382052795962e+01 -3.6595951634344978e+01 -3.6595944072302402e+01
 -4.0378889853107928e+01 -4.0370672064791876e+01 -4.0394599031962663e+01 -4.0386381548284362e+01 -4.0355506172262871e+01 -4.0371218545250407e+01 -4.0323360091737669e+01 -4.0339082627697323e+01 -4.0274366368136015e+01 -4.0290444428228668e+01
 -4.0188392480274281e+01 -4.0211349560169822e+01 -4.0059865393686792e+01 -4.0074438048655203e+01 -3.9927892488268327e+01 -3.9935390539274124e+01 -4.0394599031962663e+01 -4.0386381685222538e+01 -4.0371218812830939e+01 -4.0339083746164299e+01
 -4.0290458881188442e+01 -4.0211879343087730e+01 -4.0075859962183166e+01 -3.9937104508847746e+01 -3.8834292492661440e+01 -3.8834875259901992e+01 -3.8835121963340619e+01 -4.0377177747777061e+01 -4.0368959275109553e+01 -4.0377177747777061e+01
 -4.0368959422801574e+01 -4.0353792320156622e+01 -4.0353792609038869e+01 -4.0321640424951873e+01 -4.0321641661947872e+01 -4.0272480990716559e+01 -4.0272501787882675e+01 -4.0182602660097245e+01 -4.0183124695364540e+01 -4.0051602060851259e+01
 -4.0052487588740220e+01 -3.9918587543511322e+01 -3.9919562223559751e+01 -4.0377177747777061e+01 -4.0368959422805645e+01 -4.0353792609057265e+01 -4.0321641666859442e+01 -4.0272503710315398e+01 -4.0183217841097161e+01 -4.0052729934353692e+01
 -3.9919911923151041e+01 -3.8831220264206202e+01 -3.8831374082073935e+01 -3.8831450026758546e+01 -4.0394599031962663e+01 -4.0386381533359497e+01 -4.0371218516084099e+01 -4.0339082505498148e+01 -4.0290442640952193e+01 -4.0211270988078631e+01
 -4.0074185906955790e+01 -3.9935043760697035e+01 -4.0377177747777047e+01 -4.0368959914187769e+01 -4.0353793570251327e+01 -4.0321645824674725e+01 -4.0272589950632408e+01 -4.0185789493735754e+01 -4.0058026874163318e+01 -3.9926706265541014e+01
 -3.8834757689507484e+01 -3.8834083500242251e+01 -4.0377177747777061e+01 -4.0368959422801119e+01 -4.0353792609036439e+01 -4.0321641660695185e+01 -4.0272501281387896e+01 -4.0183099970015412e+01 -4.0052420035282076e+01 -3.9919459866962782e+01
 -4.0377177747777061e+01 -4.0368959259012470e+01 -4.0353792288667023e+01 -4.0321640288587105e+01 -4.0272478115445573e+01 -4.0182516798913376e+01 -4.0051427751370376e+01 -3.9918362968523660e+01 -3.8831311657801017e+01 -3.8831122575686464e+01
 -3.7722525943424870e+01 -3.7722572272158700e+01 -3.7722593669779833e+01 -3.6595527973819109e+01 -3.6595531253962726e+01 -3.6595531495037740e+01 -3.7721624946228516e+01 -3.7721642041404849e+01 -3.7721648482441054e+01 -3.6595237823937680e+01
 -3.6595239109994537e+01 -3.6595238351633313e+01 -3.7722542077227942e+01 -3.7722480597208779e+01 -3.6595523818440348e+01 -3.6595517293613931e+01 -3.7721621216840198e+01 -3.7721594659788117e+01 -3.6595233191623336e+01 -3.6595229387776591e+01
 -3.5453875159385866e+01 -3.5453875266276285e+01 -3.5453874683082546e+01 -3.4296716695625314e+01 -3.4296716646159915e+01 -3.4296716467745945e+01 -3.5453708773012124e+01 -3.5453708885364115e+01 -3.5453708343603608e+01 -3.4296637125456790e+01
 -3.4296637079152369e+01 -3.4296636910818954e+01 -3.5453873094836183e+01 -3.5453872076222510e+01 -3.4296716212994077e+01 -3.4296716082476557e+01 -3.5453706833390065e+01 -3.5453705859080472e+01 -3.4296636669441824e+01 -3.4296636545492412e+01
 -3.1937964454673303e+01 -3.1937964447792705e+01 -3.1937964429495608e+01 -3.1937951801092218e+01 -3.1937951794408736e+01 -3.1937951776651719e+01 -3.1937964408910236e+01 -3.1937964399672442e+01 -3.1937951756690175e+01 -3.1937951747734154e+01
 -3.5453512426656069e+01 -3.5453512510115452e+01 -3.5453512017743996e+01 -3.4296552156063953e+01 -3.4296552112201844e+01 -3.4296551958174781e+01 -3.5453407047243040e+01 -3.5453407004914844e+01 -3.5453406484946342e+01 -3.4296512766858001e+01
 -3.4296512719348485e+01 -3.4296512571475006e+01 -3.5453510701805200e+01 -3.5453509858987623e+01 -3.4296551742005946e+01 -3.4296551632049265e+01 -3.5453405442126261e+01 -3.5453404832153936e+01 -3.4296512379594070e+01 -3.4296512286075206e+01
 -3.1937936601343374e+01 -3.1937936594707196e+01 -3.1937936577230939e+01 -3.1937929701304746e+01 -3.1937929694378536e+01 -3.1937929676417408e+01 -3.1937936557751279e+01 -3.1937936549047134e+01 -3.1937929656681746e+01 -3.1937929647925355e+01
 -2.9519845271926194e+01 -2.9519845271056759e+01 -2.9519845268895484e+01 -2.9519864315352891e+01 -2.9519864314349253e+01 -2.9519864311846344e+01 -2.9519845266639095e+01 -2.9519845265673975e+01 -2.9519864309217926e+01 -2.9519864308086511e+01
 -2.7042340317914398e+01 -2.7042340317635166e+01 -2.7042340316938709e+01 -2.7042395546153568e+01 -2.7042395545708722e+01 -2.7042395544589287e+01 -2.7042340316201301e+01 -2.7042340315879848e+01 -2.7042395543389055e+01 -2.7042395542859719e+01
 -2.9519875516071924e+01 -2.9519875514679430e+01 -2.9519875511159309e+01 -2.9519879134003119e+01 -2.9519879132119463e+01 -2.9519879127267917e+01 -2.9519875507374543e+01 -2.9519875505704825e+01 -2.9519879121885563e+01 -2.9519879119432904e+01
 -2.7042432134765878e+01 -2.7042432133873195e+01 -2.7042432131569264e+01 -2.7042444919279863e+01 -2.7042444917824970e+01 -2.7042444913966509e+01 -2.7042432128998623e+01 -2.7042432127819520e+01 -2.7042444909470326e+01 -2.7042444907316142e+01
 -2.4505465015357611e+01 -2.4505465015148957e+01 -2.4505465014616984e+01 -2.4505588541366219e+01 -2.4505588540987510e+01 -2.4505588540018763e+01 -2.4505465014033700e+01 -2.4505465013770561e+01 -2.4505588538952441e+01 -2.4505588538469624e+01
 -2.1909264356363057e+01 -2.1909264356397767e+01 -2.1909264356445728e+01 -2.1909532077807842e+01 -2.1909532077667361e+01 -2.1909532077263250e+01 -2.1909264356428348e+01 -2.1909264356392150e+01 -2.1909532076741012e+01 -2.1909532076472274e+01
 -2.4505671203589340e+01 -2.4505671202739066e+01 -2.4505671200507248e+01 -2.4505700252486410e+01 -2.4505700251018801e+01 -2.4505700247043965e+01 -2.4505671197945922e+01 -2.4505671196735300e+01 -2.4505700242243453e+01 -2.4505700239851077e+01
 -2.1909711839284498e+01 -2.1909711838650217e+01 -2.1909711836905881e+01 -2.1909775129684672e+01 -2.1909775128378502e+01 -2.1909775124691947e+01 -2.1909711834757278e+01 -2.1909711833672024e+01 -2.1909775119942008e+01 -2.1909775117414668e+01
 -1.9251437094122625e+01 -1.9251566244940669e+01 -1.9251437097008392e+01 -1.9251566247826418e+01 -1.9251437103934144e+01 -1.9251566254752639e+01 -1.9251935802514016e+01 -1.9251935805400596e+01 -1.9251935812329112e+01 -1.9251437110783353e+01
 -1.9251566261603131e+01 -1.9251437113583638e+01 -1.9251566264404339e+01 -1.9251935819182432e+01 -1.9251935821985043e+01 -1.6534287391376221e+01 -1.6534556087740945e+01 -1.6534287425759207e+01 -1.6534556122140536e+01 -1.6534287508729925e+01
 -1.6534556205151439e+01 -1.6535328153662142e+01 -1.6535328188095939e+01 -1.6535328271189620e+01 -1.6534287591623080e+01 -1.6534556288085287e+01 -1.6534287625914825e+01 -1.6534556322394184e+01 -1.6535328354206758e+01 -1.6535328388550397e+01
 -1.9252493860357134e+01 -1.9252493863239469e+01 -1.9252493870158009e+01 -1.9253160020283666e+01 -1.9253160023142208e+01 -1.9253160030003297e+01 -1.9252493877001786e+01 -1.9252493879800664e+01 -1.9253160036789634e+01 -1.9253160039564804e+01
 -1.6536503227048481e+01 -1.6536503261480615e+01 -1.6536503344570626e+01 -1.6537920915862198e+01 -1.6537920950156845e+01 -1.6537921032915030e+01 -1.6536503427584663e+01 -1.6536503461927300e+01 -1.6537921115597413e+01 -1.6537921149802891e+01
 -1.3755573756649639e+01 -1.3756118091149208e+01 -1.3755574146162964e+01 -1.3756118480930450e+01 -1.3755575086908390e+01 -1.3756119422323112e+01 -1.3757694113008156e+01 -1.3757694503390994e+01 -1.3757695446237420e+01 -1.3755576028160293e+01
 -1.3756120364223532e+01 -1.3755576418159672e+01 -1.3756120754492068e+01 -1.3757696389593841e+01 -1.3757696780466242e+01 -1.0913079617523858e+01 -1.0914127508514762e+01 -1.0913084005538641e+01 -1.0914131900370769e+01 -1.0913094613783088e+01
 -1.0914142517919981e+01 -1.0917203674713173e+01 -1.0917208075613216e+01 -1.0917218715045228e+01 -1.0913105243093186e+01 -1.0914153156577207e+01 -1.0913109652160774e+01 -1.0914157569528316e+01 -1.0917229375651839e+01 -1.0917233797713628e+01
 -1.3760127770397037e+01 -1.3760128161150712e+01 -1.3760129104893906e+01 -1.3763122729012373e+01 -1.3763123118815377e+01 -1.3763124060264046e+01 -1.3760130049149309e+01 -1.3760130440394892e+01 -1.3763125002225829e+01 -1.3763125392521891e+01
 -1.0922081241743816e+01 -1.0922085651193544e+01 -1.0922096311307305e+01 -1.0928308784791238e+01 -1.0928313190905122e+01 -1.0928323842995523e+01 -1.0922106992653392e+01 -1.0922111423322805e+01 -1.0928334516361291e+01 -1.0928338943738320e+01
 -8.0026484695850559e+00 -8.0044698215642818e+00 -8.0026977188394213e+00 -8.0045191236537274e+00 -8.0028171098811551e+00 -8.0046386435770494e+00 -8.0099533405498562e+00 -8.0100027669018274e+00 -8.0101225886135445e+00 -8.0029372206363263e+00
 -8.0047588848989033e+00 -8.0029871907552863e+00 -8.0048089095410777e+00 -8.0102431341048099e+00 -8.0102932853930096e+00 -6.5197184299717277e+00 -6.5203407400232241e+00 -6.5199573453205906e+00 -6.5218876377793755e+00 -6.5221268746176966e+00
 -6.5205780856993947e+00 -6.5205405788089497e+00 -6.5227109114561879e+00 -6.5211574197404776e+00 -5.0150451831876195e+00 -5.0160203723679198e+00 -5.0156248038879392e+00 -5.0166003640496895e+00 -5.0173757988249896e+00 -5.0183525912416549e+00
 -5.0184375113637296e+00 -5.0190185386501760e+00 -5.0207739851421165e+00 -6.5247251246606695e+00 -6.5285712585242708e+00 -6.5288111845687764e+00 -6.5249630211579683e+00 -6.5293969113411805e+00 -6.5255437174727389e+00 -5.0204002186306891e+00
 -5.0213783889747381e+00 -5.0248069407292295e+00 -5.0257867550676254e+00 -5.0238032772345980e+00 -5.0282157201160631e+00 -6.5211334137387027e+00 -6.5233045817587874e+00 -6.5217461844475002e+00 -6.5213819607884904e+00 -6.5235534824526074e+00
 -6.5219929902408964e+00 -5.0209511915773692e+00 -5.0215333966654221e+00 -5.0232923351331911e+00 -5.0220234729545279e+00 -5.0226061927240675e+00 -5.0243666376502407e+00 -6.5299923050906079e+00 -6.5261338842869598e+00 -6.5302419285546147e+00
 -6.5263812808363575e+00 -5.0263253212239460e+00 -5.0307419814263996e+00 -5.0274012017858078e+00 -5.0318196468016856e+00 -8.0190802432469539e+00 -8.0191298113609424e+00 -8.0192499767121674e+00 -8.0315554508109930e+00 -8.0316050800782772e+00
 -8.0317253945710583e+00 -8.0193708678000828e+00 -8.0194211628100316e+00 -8.0318464369615565e+00 -8.0318967952905105e+00 -6.5338197482645404e+00 -6.5402007867971781e+00 -6.5404415457096778e+00 -6.5340584080946096e+00 -6.5410293000907620e+00
 -6.5346409659511622e+00 -5.0307821594798234e+00 -5.0317635627819595e+00 -5.0385146704341857e+00 -5.0394980516113455e+00 -5.0341964334993250e+00 -5.0419357800442102e+00 -6.5480886215173681e+00 -6.5571712096677972e+00 -6.5574127624654643e+00
 -6.5483281440293650e+00 -6.5580024581382013e+00 -6.5489128035991566e+00 -5.0482626995752780e+00 -5.0492481881372528e+00 -5.0602612315026416e+00 -5.0612491554443917e+00 -5.0516911039377117e+00 -5.0636981033239650e+00 -6.5416267451981724e+00
 -6.5352330195916304e+00 -6.5418772253333168e+00 -6.5354812047969002e+00 -5.0367266963205832e+00 -5.0444710198002802e+00 -5.0378060468338015e+00 -5.0455524679977986e+00 -6.5586018802716266e+00 -6.5495069862300097e+00 -6.5588531901461096e+00
 -6.5497560614733965e+00 -5.0542316761294641e+00 -5.0662449316647704e+00 -5.0553153776198334e+00 -5.0673312939356663e+00 -3.4830800413145830e+00 -3.4835654733057297e+00 -3.4868222508211395e+00 -3.4873098265509115e+00 -3.4851025049933075e+00
 -3.4888522038457901e+00 -3.4964466456736973e+00 -3.4969418318395724e+00 -3.4985004369712196e+00 -1.9024046846311147e+00 -1.9023773638299608e+00 -1.9056080172509775e+00 -1.9024019338958376e+00 -1.9150996554549260e+00 -1.9055841802395552e+00
 -1.9151185535288782e+00 -1.9056041299287771e+00 -1.9151208366081991e+00 -1.9026187097491405e+00 -1.9058204344569425e+00 -1.9029755594839379e+00 -1.9157065907146711e+00 -1.9061800423263173e+00 -1.9153385792547741e+00 -1.9307735403957429e+00
 -1.9515773944441146e+00 -1.9307524569724128e+00 -1.9516565535972055e+00 -1.9307902871118723e+00 -1.9516013051209107e+00 -1.9310223561448869e+00 -1.9523389733431444e+00 -1.9314135538753945e+00 -1.9519094212237902e+00 -3.4878673244773020e+00
 -3.4916231956372390e+00 -3.4920767055585711e+00 -3.4958385403291699e+00 -3.5012881956977306e+00 -3.5055188467529348e+00 -1.9036727005988152e+00 -1.9068789345495702e+00 -1.9045841568034945e+00 -1.9173363177476734e+00 -1.9077938557082488e+00
 -1.9164126435991027e+00 -1.9058896344270604e+00 -1.9091010492811735e+00 -1.9074565952250762e+00 -1.9202275111026543e+00 -1.9106712986603216e+00 -1.9186496610421371e+00 -1.9321301892496117e+00 -1.9540404388141017e+00 -1.9330732164724735e+00
 -1.9530683086586793e+00 -1.9343932075979131e+00 -1.9569843070928032e+00 -1.9359876565683443e+00 -1.9553655988087224e+00 -3.5070235112277195e+00 -3.5075285102323988e+00 -3.5091066751169051e+00 -3.5117280679999898e+00 -3.5122374529479079e+00
 -3.5138243262112154e+00 -1.9755375552869128e+00 -1.9986445444043430e+00 -1.9755121280239079e+00 -1.9988335596425462e+00 -1.9756504334593405e+00 -1.9986629915465739e+00 -1.9759253020806280e+00 -1.9996597442936512e+00 -1.9764080846934902e+00
 -1.9991217603567220e+00 -2.0158280582510653e+00 -2.0222983488858848e+00 -2.0158191791430498e+00 -2.0225341242922470e+00 -2.0160429019681674e+00 -2.0223012589448275e+00 -2.0163362713181279e+00 -2.0234251098478531e+00 -2.0169172178051200e+00
 -2.0228265937045431e+00 -3.5119133024942162e+00 -3.5161604099456514e+00 -3.5166392336363708e+00 -3.5208934580499922e+00 -1.9771460136587697e+00 -2.0014541931294212e+00 -1.9781582183948350e+00 -2.0003990938590266e+00 -1.9794820569199931e+00
 -2.0044600431362585e+00 -1.9811348821384804e+00 -2.0027700522522380e+00 -2.0176536029013850e+00 -2.0252619156948732e+00 -2.0187431256898902e+00 -2.0241578057462677e+00 -2.0200494684759480e+00 -2.0282959017984612e+00 -2.0217699814702863e+00
 -2.0265622497454090e+00 -1.0671991696267704e+00 -1.0715369063909175e+00 -1.0676463378157259e+00 -1.0720706579170942e+00 -1.0665066114295960e+00 -1.0707792461432561e+00 -1.0865901855612135e+00 -1.0859961457476124e+00 -1.0851751636063454e+00
 -1.9738473382729013e-01 -1.9455995783475102e-01 -1.9873295486525352e-01 -1.9416205723720728e-01 -1.9191939847771344e-01 -1.9079833707818106e-01 -2.1022135975317432e-01 -2.0489768129697741e-01 -2.0090244513906513e-01 -1.0660134157478098e+00
 -1.0702589687573882e+00 -1.0658465035061679e+00 -1.0700847930348343e+00 -1.0846288671648436e+00 -1.0844530062806514e+00 -1.9042520120009229e-01 -1.8910235199073561e-01 -1.8974311874515687e-01 -1.8837231472209684e-01 -1.9897483977624689e-01
 -1.9818211824068283e-01 -1.1127474300731983e+00 -1.1133342910748123e+00 -1.1119503867458882e+00 -1.1546270245336168e+00 -1.1541412563006019e+00 -1.1534924796908799e+00 -2.3870313834090609e-01 -2.3327851835027852e-01 -2.2919874534760457e-01
 -2.9666050456171700e-01 -2.9199122647822257e-01 -2.8857737162263969e-01 -1.1114360680742332e+00 -1.1112920444776062e+00 -1.1530933791103661e+00 -1.1530273514394276e+00 -2.2725479603631815e-01 -2.2647421965223186e-01 -2.8694789118862973e-01
 -2.8630349771796387e-01 1.8870878865500935e-02 2.3753511235928580e-02 2.0761368684682039e-02 3.3388710168501243e-02 2.3036833508863686e-01 2.3639432767571500e-01 2.3489096552662633e-01 2.6393180313445741e-01 3.7320240832344453e-01
 3.7347009054304198e-01 3.7344064295929719e-01 3.8924978766880969e-01 4.2334010136009520e-01 4.2335752289886008e-01 4.2335745692333820e-01 4.3840679186608666e-01 2.6578461929686024e-02 3.7749073317206276e-02 2.3850815213881701e-01
 2.6800703471851184e-01 3.7351268791925196e-01 3.8933064122189937e-01 4.2335763302522278e-01 4.3841141841139075e-01 1.3373009090910340e-02 2.7729582141324441e-02 2.3187823704082333e-01 2.6344560296771191e-01 3.7338320071185116e-01