DF-ISE text

Info {
  version = 1.0
  type    = dataset
  dimension   = 3
  nb_vertices = 5293
  nb_edges    = 23303
  nb_faces    = 30690
  nb_elements = 12980
  nb_regions  = 3
  datasets    = [ "ElectrostaticPotential" "ContactExternalVoltage" "ContactCurrentFlux" "ContactCharge" "eQuasiFermiPotential" "hQuasiFermiPotential" "QuasiFermiPotential" "LatticeTemperature" ]
  functions   = [ ElectrostaticPotential ContactExternalVoltage ContactCurrentFlux ContactCharge eQuasiFermiPotential hQuasiFermiPotential QuasiFermiPotential LatticeTemperature ]
}

Data {

  Dataset ("ElectrostaticPotential") {
    function  = ElectrostaticPotential
    type      = scalar
    dimension = 1
    location  = vertex
    validity  = [ "substrate" ]
    Values (5293) {
 -2.5037888985310798e+02 -2.5037067152405416e+02 -2.5037888985310798e+02 -2.5037888985310798e+02 -2.5037067207184921e+02 -2.5037067166099880e+02 -2.5039459903196268e+02 -2.5038638155161510e+02 -2.5035550508313281e+02 -2.5035550615561831e+02
 -2.5035550535115411e+02 -2.5037121854937561e+02 -2.5032329681889016e+02 -2.5032330346267403e+02 -2.5032329832486244e+02 -2.5033907249305796e+02 -2.5024809413810740e+02 -2.5024908102214508e+02 -2.5024827197254589e+02 -2.5028138856238161e+02
 -2.4934197690268937e+02 -2.4935616503643959e+02 -2.4934422458395952e+02 -2.4941796159670190e+02 -2.4836922298576212e+02 -2.4838979817960984e+02 -2.4837206778208909e+02 -2.4842764311819698e+02 -2.4739361341074653e+02 -2.4741710003242662e+02
 -2.4739643939796525e+02 -2.4743665760651925e+02 -2.5037888985310798e+02 -2.5037067166100238e+02 -2.5039459903196268e+02 -2.5038638168855317e+02 -2.5035550535120410e+02 -2.5037121881697936e+02 -2.5032329839168898e+02 -2.5033907369594678e+02
 -2.5024830161324303e+02 -2.5028147491461630e+02 -2.4934475689656165e+02 -2.4942216684110011e+02 -2.4837295688664156e+02 -2.4843299112651169e+02 -2.4739755196108797e+02 -2.4744191363362933e+02 -2.3954060438290631e+02 -2.3954852407131889e+02
 -2.3954102900883541e+02 -2.3955005880690240e+02 -2.3954124218843813e+02 -2.3955074564317502e+02 -2.5037888985310798e+02 -2.5037067207185282e+02 -2.5039459903196268e+02 -2.5038638158585115e+02 -2.5035550615578049e+02 -2.5037121861629180e+02
 -2.5032330373563039e+02 -2.5033907282833749e+02 -2.5024920248858794e+02 -2.5028144081068828e+02 -2.4935844654056095e+02 -2.4942119413520396e+02 -2.4839396308810404e+02 -2.4843304277667559e+02 -2.4742278872418248e+02 -2.4744356388664076e+02
 -2.5039459903196268e+02 -2.5038638172278965e+02 -2.5037121888389788e+02 -2.5033907403437902e+02 -2.5028152996742705e+02 -2.4942561985251115e+02 -2.4843876358589372e+02 -2.4744928562765713e+02 -2.3955339943149556e+02 -2.3955510377389820e+02
 -2.3955587831709582e+02 -2.5037888985310798e+02 -2.5037067166099837e+02 -2.5039459903196268e+02 -2.5038638153669027e+02 -2.5035550535114220e+02 -2.5037121852020493e+02 -2.5032329830576410e+02 -2.5033907235540141e+02 -2.5024826348193218e+02
 -2.5028137391084258e+02 -2.4934407145380050e+02 -2.4941726193619510e+02 -2.4837179418173471e+02 -2.4842661965235030e+02 -2.4739607361359649e+02 -2.4743549125860324e+02 -2.5037888985310798e+02 -2.5037067150912850e+02 -2.5037717774777707e+02
 -2.5036895992182832e+02 -2.5035550505390117e+02 -2.5035379354423165e+02 -2.5032329662385885e+02 -2.5032157538574322e+02 -2.5024806130394273e+02 -2.5024343120961794e+02 -2.4934155719813731e+02 -2.4934886372776003e+02 -2.4836859813917482e+02
 -2.4838469414194461e+02 -2.4739287949109746e+02 -2.4741373525911297e+02 -2.3954083167649745e+02 -2.3954969663072180e+02 -2.3954030098150039e+02 -2.3954790644454874e+02 -2.5039459903196268e+02 -2.5038638157092623e+02 -2.5037121858712064e+02
 -2.5033907268986189e+02 -2.5028142542992146e+02 -2.4942043886367767e+02 -2.4843191878099307e+02 -2.4744226354699427e+02 -2.5037717774777707e+02 -2.5036895991378398e+02 -2.5035379352869583e+02 -2.5032157564686977e+02 -2.5024356591916185e+02
 -2.4935098500717936e+02 -2.4838861492180806e+02 -2.4741914062612992e+02 -2.3955468363677545e+02 -2.3955268983653733e+02 -2.3165350576581770e+02 -2.3165586134882898e+02 -2.3165355160395208e+02 -2.3165598323077907e+02 -2.3165356706784880e+02
 -2.3165603862391487e+02 -2.2374647606560595e+02 -2.2374723910703224e+02 -2.2374647923037901e+02 -2.2374724744621466e+02 -2.2374647631305848e+02 -2.2374724705788131e+02 -2.3165834818352999e+02 -2.3165848780937870e+02 -2.3165855181469362e+02
 -2.2374838156133333e+02 -2.2374839138741004e+02 -2.2374839116016221e+02 -2.3165348735933057e+02 -2.3165589144214906e+02 -2.3165341278287278e+02 -2.3165572500873989e+02 -2.2374646113738416e+02 -2.2374722489427887e+02 -2.2374645031088420e+02
 -2.2374720680638723e+02 -2.3165838067999832e+02 -2.3165818932392196e+02 -2.2374836532675232e+02 -2.2374834423758190e+02 -2.5037888985310798e+02 -2.5037067207185282e+02 -2.5039459903196268e+02 -2.5038638158585124e+02 -2.5035550615581093e+02
 -2.5037121861629416e+02 -2.5032330379156772e+02 -2.5033907283606885e+02 -2.5024922740573243e+02 -2.5028144769221086e+02 -2.4935891767084971e+02 -2.4942168733840597e+02 -2.4839485546252294e+02 -2.4843398644733898e+02 -2.4742405628610530e+02
 -2.4744490224521334e+02 -2.5039459903196268e+02 -2.5038638172278971e+02 -2.5037121888390033e+02 -2.5033907404227384e+02 -2.5028153699800899e+02 -2.4942612683725719e+02 -2.4843973324441822e+02 -2.4745065957225702e+02 -2.3955544880282773e+02
 -2.3955717058472916e+02 -2.3955795387247468e+02 -2.5037888985310798e+02 -2.5037067207185282e+02 -2.5039459903196268e+02 -2.5038638158585124e+02 -2.5035550615581624e+02 -2.5037121861629453e+02 -2.5032330380131373e+02 -2.5033907283734786e+02
 -2.5024923174718364e+02 -2.5028144883139547e+02 -2.4935899986083749e+02 -2.4942176904165837e+02 -2.4839501255694478e+02 -2.4843414525501814e+02 -2.4742428246161677e+02 -2.4744513183760017e+02 -2.5039459903196268e+02 -2.5038638172278971e+02
 -2.5037121888390070e+02 -2.5033907404355506e+02 -2.5028153813974427e+02 -2.4942620923810736e+02 -2.4843989346328368e+02 -2.4745089118657663e+02 -2.3955593185991893e+02 -2.3955765497600888e+02 -2.3955843866948069e+02 -2.5039459903196268e+02
 -2.5038638157092632e+02 -2.5037121858712297e+02 -2.5033907269750654e+02 -2.5028143223302129e+02 -2.4942092575542475e+02 -2.4843285029031574e+02 -2.4744358478241253e+02 -2.5037717774777707e+02 -2.5036895991378395e+02 -2.5035379352873898e+02
 -2.5032157572064060e+02 -2.5024359638071635e+02 -2.4935144829481615e+02 -2.4838948813914791e+02 -2.4742038008297291e+02 -2.3955673696537355e+02 -2.3955471934676774e+02 -2.5039459903196268e+02 -2.5038638157092632e+02 -2.5037121858712331e+02
 -2.5033907269877741e+02 -2.5028143336475907e+02 -2.4942100680439145e+02 -2.4843300780612157e+02 -2.4744381251453672e+02 -2.5037717774777707e+02 -2.5036895991378395e+02 -2.5035379352874662e+02 -2.5032157573365643e+02 -2.5024360175513087e+02
 -2.4935153012599125e+02 -2.4838964363084807e+02 -2.4742060360123730e+02 -2.3955721909561740e+02 -2.3955519916155052e+02 -2.3165978017367559e+02 -2.3165992211565739e+02 -2.3165998650599622e+02 -2.2374917973817864e+02 -2.2374918972330724e+02
 -2.2374918918877390e+02 -2.3166015522232257e+02 -2.3166029733988833e+02 -2.3166036156566753e+02 -2.2374939540281761e+02 -2.2374940537958091e+02 -2.2374940472891566e+02 -2.3165980998901915e+02 -2.3165961415427986e+02 -2.2374916220046870e+02
 -2.2374914033779913e+02 -2.3166018417046851e+02 -2.3165998772078009e+02 -2.2374937750052698e+02 -2.2374935549779769e+02 -2.1582304174524540e+02 -2.1582331751978964e+02 -2.1582304153443201e+02 -2.1582331762732485e+02 -2.1582303988321283e+02
 -2.1582331601668977e+02 -2.0788420433609846e+02 -2.0788430775151838e+02 -2.0788420418815045e+02 -2.0788430761019026e+02 -2.0788420374061903e+02 -2.0788430713864224e+02 -2.1582382738887290e+02 -2.1582382756501610e+02 -2.1582382578517766e+02
 -2.0788452712425752e+02 -2.0788452697291746e+02 -2.0788452645351268e+02 -2.1582303678696096e+02 -2.1582331215004589e+02 -2.1582303501886256e+02 -2.1582330974818191e+02 -2.0788420317267040e+02 -2.0788430649741454e+02 -2.0788420289931602e+02
 -2.0788430617663198e+02 -2.1582382133736988e+02 -2.1582381855183266e+02 -2.0788452573345822e+02 -2.0788452537001027e+02 -1.9196135287080597e+02 -1.9196138402965582e+02 -1.9196135285321321e+02 -1.9196138401148619e+02 -1.9196135280789076e+02
 -1.9196138396388264e+02 -1.9196145982203427e+02 -1.9196145980244779e+02 -1.9196145975076701e+02 -1.9196135275862230e+02 -1.9196138391116409e+02 -1.9196135273697627e+02 -1.9196138388771328e+02 -1.9196145969308103e+02 -1.9196145966729699e+02
 -2.1582422871475893e+02 -2.1582422887021224e+02 -2.1582422695634403e+02 -2.0788471673030139e+02 -2.0788471656832371e+02 -2.0788471601602677e+02 -2.1582433653185288e+02 -2.1582433667536534e+02 -2.1582433471901930e+02 -2.0788477102747132e+02
 -2.0788477086167833e+02 -2.0788477029882736e+02 -2.1582422226510141e+02 -2.1582421934315701e+02 -2.0788471525334322e+02 -2.0788471486920866e+02 -2.1582432996699200e+02 -2.1582432701412861e+02 -2.0788476952374569e+02 -2.0788476913391386e+02
 -1.9196154287023924e+02 -1.9196154284952814e+02 -1.9196154279489636e+02 -1.9196159846039467e+02 -1.9196159843928172e+02 -1.9196159838363005e+02 -1.9196154273393398e+02 -1.9196154270669439e+02 -1.9196159832157866e+02 -1.9196159829386750e+02
 -1.7597883970773483e+02 -1.7597886936515658e+02 -1.7597883970593892e+02 -1.7597886936329840e+02 -1.7597883970147845e+02 -1.7597886935867248e+02 -1.7597895113331535e+02 -1.7597895113133552e+02 -1.7597895112639850e+02 -1.7597883969680504e+02
 -1.7597886935380745e+02 -1.7597883969476814e+02 -1.7597886935168475e+02 -1.7597895112119767e+02 -1.7597895111892856e+02 -1.5993667629609448e+02 -1.5993673327051195e+02 -1.5993667629586503e+02 -1.5993673327027545e+02 -1.5993667629526948e+02
 -1.5993673326966751e+02 -1.5993689500646497e+02 -1.5993689500621844e+02 -1.5993689500558631e+02 -1.5993667629457454e+02 -1.5993673326896126e+02 -1.5993667629421654e+02 -1.5993673326860028e+02 -1.5993689500485553e+02 -1.5993689500448440e+02
 -1.7597906651517872e+02 -1.7597906651309967e+02 -1.7597906650791575e+02 -1.7597919227198167e+02 -1.7597919226985695e+02 -1.7597919226456065e+02 -1.7597906650245790e+02 -1.7597906650007943e+02 -1.7597919225898772e+02 -1.7597919225656099e+02
 -1.5993713568022616e+02 -1.5993713567996923e+02 -1.5993713567931192e+02 -1.5993741748851096e+02 -1.5993741748824007e+02 -1.5993741748754866e+02 -1.5993713567855590e+02 -1.5993713567817451e+02 -1.5993741748675816e+02 -1.5993741748636262e+02
 -1.4383464399313547e+02 -1.4383476503398134e+02 -1.4383464399313812e+02 -1.4383476503398131e+02 -1.4383464399310458e+02 -1.4383476503394593e+02 -1.4383511003295334e+02 -1.4383511003295172e+02 -1.4383511003291306e+02 -1.4383464399297165e+02
 -1.4383476503381280e+02 -1.4383464399284316e+02 -1.4383476503368584e+02 -1.4383511003277704e+02 -1.4383511003264914e+02 -1.2767223020339654e+02 -1.2767248780503517e+02 -1.2767223020439799e+02 -1.2767248780603455e+02 -1.2767223020677494e+02
 -1.2767248780841078e+02 -1.2767322317893006e+02 -1.2767322317992856e+02 -1.2767322318230320e+02 -1.2767223020904908e+02 -1.2767248781068575e+02 -1.2767223020991294e+02 -1.2767248781155145e+02 -1.2767322318457695e+02 -1.2767322318544234e+02
 -1.4383562721208668e+02 -1.4383562721208159e+02 -1.4383562721203472e+02 -1.4383623860234948e+02 -1.4383623860233260e+02 -1.4383623860225686e+02 -1.4383562721189071e+02 -1.4383562721175977e+02 -1.4383623860208371e+02 -1.4383623860194089e+02
 -1.2767432873967898e+02 -1.2767432874067323e+02 -1.2767432874303769e+02 -1.2767564066997869e+02 -1.2767564067095633e+02 -1.2767564067328037e+02 -1.2767432874530155e+02 -1.2767432874616313e+02 -1.2767564067550357e+02 -1.2767564067634855e+02
 -2.5037888985310798e+02 -2.5037067207185282e+02 -2.5039459903196268e+02 -2.5038638158585124e+02 -2.5035550615580885e+02 -2.5037121861629407e+02 -2.5032330378774651e+02 -2.5033907283557716e+02 -2.5024922570348610e+02 -2.5028144725427518e+02
 -2.4935888542695909e+02 -2.4942165592465335e+02 -2.4839479335934757e+02 -2.4843392487001265e+02 -2.4742396572395512e+02 -2.4744481198359918e+02 -2.5039459903196268e+02 -2.5038638172278971e+02 -2.5037121888390018e+02 -2.5033907404178643e+02
 -2.5028153656366186e+02 -2.4942609548335221e+02 -2.4843967174338405e+02 -2.4745056938658388e+02 -2.3955520281928617e+02 -2.3955692462752907e+02 -2.3955770791808993e+02 -2.5037888985310798e+02 -2.5037067207185279e+02 -2.5039459903196268e+02
 -2.5038638158585115e+02 -2.5035550615577293e+02 -2.5037121861629129e+02 -2.5032330372197910e+02 -2.5033907282658649e+02 -2.5024919640884667e+02 -2.5028143925169172e+02 -2.4935833174067750e+02 -2.4942108240530584e+02 -2.4839374505514459e+02
 -2.4843282674597211e+02 -2.4742247675044237e+02 -2.4744325309964802e+02 -2.5039459903196268e+02 -2.5038638172278959e+02 -2.5037121888389740e+02 -2.5033907403264368e+02 -2.5028152842153261e+02 -2.4942550835816488e+02 -2.4843854786314728e+02
 -2.4744897515478846e+02 -2.3955276272207277e+02 -2.3955446717293054e+02 -2.3955524173905104e+02 -2.5039459903196268e+02 -2.5038638157092632e+02 -2.5037121858712283e+02 -2.5033907269701334e+02 -2.5028143179382613e+02 -2.4942089429914790e+02
 -2.4843278864590425e+02 -2.4744349443877638e+02 -2.5037717774777707e+02 -2.5036895991378395e+02 -2.5035379352873593e+02 -2.5032157571546227e+02 -2.5024359424244466e+02 -2.4935141571743452e+02 -2.4838942577753690e+02 -2.4742028932068811e+02
 -2.3955649096921331e+02 -2.3955447330198763e+02 -2.5039459903196268e+02 -2.5038638157092623e+02 -2.5037121858712010e+02 -2.5033907268810540e+02 -2.5028142386630790e+02 -2.4942032697345402e+02 -2.4843170249722428e+02 -2.4744195245132207e+02
 -2.5037717774777707e+02 -2.5036895991378395e+02 -2.5035379352868480e+02 -2.5032157562834985e+02 -2.5024355827360105e+02 -2.4935086897122619e+02 -2.4838839591342264e+02 -2.4741882788944184e+02 -2.3955404690832302e+02 -2.3955205292297319e+02
 -2.3165952330036728e+02 -2.3165966524355943e+02 -2.3165972963055574e+02 -2.2374897708571478e+02 -2.2374898707046546e+02 -2.2374898653433488e+02 -2.3165776931663285e+02 -2.3165790894925638e+02 -2.3165797294730805e+02 -2.2374795993451747e+02
 -2.2374796975993934e+02 -2.2374796952865782e+02 -2.3165955310385169e+02 -2.3165935726204160e+02 -2.2374895954360863e+02 -2.2374893767961836e+02 -2.3165780178172955e+02 -2.3165761040135274e+02 -2.2374794368828432e+02 -2.2374792259504969e+02
 -2.5037888985310798e+02 -2.5037067206438601e+02 -2.5039459903196268e+02 -2.5038638154788362e+02 -2.5035550614097784e+02 -2.5037121854208019e+02 -2.5032330332251070e+02 -2.5033907245251407e+02 -2.5024904562672293e+02 -2.5028137947464586e+02
 -2.4935559194852001e+02 -2.4941740520231815e+02 -2.4838881349202009e+02 -2.4842666856239282e+02 -2.4741579841443979e+02 -2.4743536136458960e+02 -2.5039459903196268e+02 -2.5038638168482174e+02 -2.5037121880968417e+02 -2.5033907365549629e+02
 -2.5028146590158690e+02 -2.4942161164882739e+02 -2.4843201804831676e+02 -2.4744061880665345e+02 -2.3954711319025714e+02 -2.3954864834957459e+02 -2.3954933531908202e+02 -2.5037717774777710e+02 -2.5036895927470101e+02 -2.5037717774777710e+02
 -2.5036895942239306e+02 -2.5035379227651663e+02 -2.5035379256569612e+02 -2.5032156673197372e+02 -2.5032156847384709e+02 -2.5024202014279783e+02 -2.5024224629766616e+02 -2.4933274203817646e+02 -2.4933502019699804e+02 -2.4836133175658443e+02
 -2.4836419489990215e+02 -2.4738696593178301e+02 -2.4738980150441895e+02 -2.5037717774777710e+02 -2.5036895942239715e+02 -2.5035379256576570e+02 -2.5032156856613926e+02 -2.5024228426261845e+02 -2.4933555943728197e+02 -2.4836508924939693e+02
 -2.4739091771037477e+02 -2.3953789610914686e+02 -2.3953832146898949e+02 -2.3953853496371465e+02 -2.5039459903196268e+02 -2.5038638153295872e+02 -2.5037121851290951e+02 -2.5033907231482891e+02 -2.5028136480002243e+02 -2.4941670489545874e+02
 -2.4842564415876313e+02 -2.4743419395072755e+02 -2.5037717774777707e+02 -2.5036895991377938e+02 -2.5035379352842369e+02 -2.5032157521264546e+02 -2.5024338677705629e+02 -2.4934828431826151e+02 -2.4838370506598397e+02 -2.4741243071001387e+02
 -2.3954828584603675e+02 -2.3954649501383588e+02 -2.5037717774777710e+02 -2.5036895942239258e+02 -2.5035379256567882e+02 -2.5032156844742823e+02 -2.5024223540928008e+02 -2.4933486481466090e+02 -2.4836391928237515e+02 -2.4738943396105344e+02
 -2.5037717774777710e+02 -2.5036895925860384e+02 -2.5035379224497018e+02 -2.5032156649949741e+02 -2.5024197820844572e+02 -2.4933231560150693e+02 -2.4836070197427267e+02 -2.4738622849268145e+02 -2.3953812368679996e+02 -2.3953759199905915e+02
 -2.3165486103667556e+02 -2.3165498294707152e+02 -2.3165503833395883e+02 -2.2374659710209443e+02 -2.2374660544109886e+02 -2.2374660504535342e+02 -2.3165213604332550e+02 -2.3165218193131909e+02 -2.3165219739703679e+02 -2.2374570567760034e+02
 -2.2374570884261064e+02 -2.2374570591451936e+02 -2.3165489107502290e+02 -2.3165472457276491e+02 -2.2374658286599976e+02 -2.2374656476775030e+02 -2.3165211757245842e+02 -2.3165204288987849e+02 -2.2374569071260078e+02 -2.2374567986557636e+02
 -2.1582409660806502e+02 -2.1582409676330528e+02 -2.1582409484884266e+02 -2.0788465393534909e+02 -2.0788465377327483e+02 -2.0788465322073358e+02 -2.1582356441123113e+02 -2.1582356458681863e+02 -2.1582356280534498e+02 -2.0788440464229464e+02
 -2.0788440449064541e+02 -2.0788440397043126e+02 -2.1582409015689913e+02 -2.1582408723462672e+02 -2.0788465245778860e+02 -2.0788465207353883e+02 -2.1582355835548788e+02 -2.1582355556892367e+02 -2.0788440324944816e+02 -2.0788440288554008e+02
 -1.9196160937730349e+02 -1.9196160935653313e+02 -1.9196160930175316e+02 -1.9196158168449389e+02 -1.9196158166467958e+02 -1.9196158161240453e+02 -1.9196160924063363e+02 -1.9196160921332464e+02 -1.9196158155403000e+02 -1.9196158152789292e+02
 -2.1582294182922337e+02 -2.1582294193559028e+02 -2.1582294032121226e+02 -2.0788413780074376e+02 -2.0788413765856390e+02 -2.0788413718461661e+02 -2.1582261392646274e+02 -2.1582261371356728e+02 -2.1582261205512052e+02 -2.0788401484953090e+02
 -2.0788401469978564e+02 -2.0788401424654367e+02 -2.1582293644927773e+02 -2.1582293404418678e+02 -2.0788413654016236e+02 -2.0788413621725306e+02 -2.1582260894645509e+02 -2.1582260716741760e+02 -2.0788401366867961e+02 -2.0788401338557364e+02
 -1.9196154178217918e+02 -1.9196154176328017e+02 -1.9196154171361417e+02 -1.9196152288534614e+02 -1.9196152286609157e+02 -1.9196152281543002e+02 -1.9196154165805552e+02 -1.9196154163263489e+02 -1.9196152275659091e+02 -1.9196152272502195e+02
 -1.7597930693288450e+02 -1.7597930693074997e+02 -1.7597930692542718e+02 -1.7597939520912431e+02 -1.7597939520692481e+02 -1.7597939520141375e+02 -1.7597930691982191e+02 -1.7597930691737827e+02 -1.7597939519554544e+02 -1.7597939519293172e+02
 -1.5993769704881052e+02 -1.5993769704849839e+02 -1.5993769704770298e+02 -1.5993793226089417e+02 -1.5993793226042865e+02 -1.5993793225922423e+02 -1.5993769704680031e+02 -1.5993769704635417e+02 -1.5993793225782773e+02 -1.5993793225711235e+02
 -1.7597944935958239e+02 -1.7597944935700724e+02 -1.7597944935034928e+02 -1.7597946738376149e+02 -1.7597946738031700e+02 -1.7597946737053462e+02 -1.7597944934266840e+02 -1.7597944933855865e+02 -1.7597946735617663e+02 -1.7597946734369853e+02
 -1.5993808848088173e+02 -1.5993808847992966e+02 -1.5993808847729224e+02 -1.5993814315023826e+02 -1.5993814314836104e+02 -1.5993814314243048e+02 -1.5993808847376553e+02 -1.5993808847138803e+02 -1.5993814313190558e+02 -1.5993814312053468e+02
 -1.4383685146432552e+02 -1.4383685146426393e+02 -1.4383685146407569e+02 -1.4383737219290910e+02 -1.4383737219268588e+02 -1.4383737219206859e+02 -1.4383685146378190e+02 -1.4383685146358505e+02 -1.4383737219126061e+02 -1.4383737219078552e+02
 -1.2767696125552337e+02 -1.2767696125644515e+02 -1.2767696125862992e+02 -1.2767808771896094e+02 -1.2767808771970407e+02 -1.2767808772141861e+02 -1.2767696126070572e+02 -1.2767696126148564e+02 -1.2767808772293900e+02 -1.2767808772342333e+02
 -1.4383772073485818e+02 -1.4383772073413911e+02 -1.4383772073206529e+02 -1.4383784323940282e+02 -1.4383784323775336e+02 -1.4383784323236100e+02 -1.4383772072909653e+02 -1.4383772072691983e+02 -1.4383784322224520e+02 -1.4383784321048773e+02
 -1.2767884400451715e+02 -1.2767884400474745e+02 -1.2767884400496409e+02 -1.2767911026889789e+02 -1.2767911026818997e+02 -1.2767911026505833e+02 -1.2767884400427680e+02 -1.2767884400301418e+02 -1.2767911025707488e+02 -1.2767911024559901e+02
 -1.1144834235201078e+02 -1.1144888623861370e+02 -1.1144834236413358e+02 -1.1144888625073793e+02 -1.1144834239336018e+02 -1.1144888627997196e+02 -1.1145044232906673e+02 -1.1145044234119598e+02 -1.1145044237044260e+02 -1.1144834242248207e+02
 -1.1144888630910270e+02 -1.1144834243446221e+02 -1.1144888632108777e+02 -1.1145044239958635e+02 -1.1145044241157699e+02 -9.5160689746846614e+01 -9.5161822195818814e+01 -9.5160689884401393e+01 -9.5161822333429328e+01 -9.5160690216490153e+01
 -9.5161822665656231e+01 -9.5165075332993467e+01 -9.5165075470733910e+01 -9.5165075803275116e+01 -9.5160690548532102e+01 -9.5161822997837803e+01 -9.5160690685998730e+01 -9.5161823135363306e+01 -9.5165076135771429e+01 -9.5165076273427545e+01
 -1.1145279154079043e+02 -1.1145279155290915e+02 -1.1145279158213046e+02 -1.1145559486890218e+02 -1.1145559488095701e+02 -1.1145559491002382e+02 -1.1145279161124918e+02 -1.1145279162322977e+02 -1.1145559493898784e+02 -1.1145559495090463e+02
 -9.5170024215580455e+01 -9.5170024353355103e+01 -9.5170024685979101e+01 -9.5175991040179312e+01 -9.5175991177501885e+01 -9.5175991509034219e+01 -9.5170025018558661e+01 -9.5170025156249622e+01 -9.5175991840521959e+01 -9.5175991977761015e+01
 -7.8804559818586227e+01 -7.8806857667149757e+01 -7.8804561370377286e+01 -7.8806859219758394e+01 -7.8804565118202419e+01 -7.8806862969561848e+01 -7.8813507618072350e+01 -7.8813509172828347e+01 -7.8813512927819289e+01 -7.8804568868074213e+01
 -7.8806866721415034e+01 -7.8804570421867211e+01 -7.8806868276030087e+01 -7.8813516684864140e+01 -7.8813518241630916e+01 -6.2370584058317384e+01 -6.2375021659435454e+01 -6.2370601538601228e+01 -6.2375039150195363e+01 -6.2370643790772604e+01
 -6.2375081427710917e+01 -6.2388037504551988e+01 -6.2388055025630081e+01 -6.2388097376436733e+01 -6.2370686116216760e+01 -6.2375123778566177e+01 -6.2370703669746959e+01 -6.2375141342640283e+01 -6.2388139800714484e+01 -6.2388157395238061e+01
 -7.8823767384078337e+01 -7.8823768940793016e+01 -7.8823772700516542e+01 -7.8836378377786971e+01 -7.8836379931859653e+01 -7.8836383685207252e+01 -7.8823776462299648e+01 -7.8823778021030975e+01 -7.8836387440618083e+01 -7.8836388996711406e+01
 -6.2408642440931324e+01 -6.2408660001836189e+01 -6.2408702448931272e+01 -6.2434892451132519e+01 -6.2434910016151520e+01 -6.2434952473341106e+01 -6.2408744969691071e+01 -6.2408762604235079e+01 -6.2434995004421772e+01 -6.2435012643306315e+01
 -4.5841134676972743e+01 -4.5848899528434451e+01 -4.5841331020841452e+01 -4.5849095994300711e+01 -4.5841806753033453e+01 -4.5849572022999993e+01 -4.5872236908621360e+01 -4.5872433756930306e+01 -4.5872910712286455e+01 -4.5842284977354012e+01
 -4.5850050546327843e+01 -4.5842483814794562e+01 -4.5850249508249490e+01 -4.5873390166738709e+01 -4.5873589515552766e+01 -3.7529681991155485e+01 -3.7532185433844816e+01 -3.7530636321264282e+01 -3.7539006896030131e+01 -3.7539961780582928e+01
 -3.7533133252207499e+01 -3.7532962806372282e+01 -3.7542289643087898e+01 -3.7535443611437749e+01 -2.9175713740804689e+01 -2.9179624172020770e+01 -2.9178243512410397e+01 -2.9182154089951712e+01 -2.9185902218198187e+01 -2.9189814636880442e+01
 -2.9189285931088182e+01 -2.9191816391874337e+01 -2.9199481736630815e+01 -3.7551008254931375e+01 -3.7567648524760166e+01 -3.7568605255426952e+01 -3.7551957217976707e+01 -3.7570937619993742e+01 -3.7554270388772530e+01 -2.9199044743241728e+01
 -2.9202959558718355e+01 -2.9218130775389064e+01 -2.9222050216357701e+01 -2.9212632683724852e+01 -2.9231734727926234e+01 -3.7535322568020000e+01 -3.7544650827715117e+01 -3.7537786633813724e+01 -3.7536310212724921e+01 -3.7545639071816893e+01
 -3.7538767152065056e+01 -2.9199282719130689e+01 -2.9201813918637573e+01 -2.9209484452998886e+01 -2.9203528874305036e+01 -2.9206060410677278e+01 -2.9213733169587435e+01 -3.7573303364390121e+01 -3.7556616280927948e+01 -3.7574293511864909e+01
 -3.7557598001410327e+01 -2.9222641696706408e+01 -2.9241755411620083e+01 -2.9226893076167720e+01 -2.9246011698109982e+01 -4.5910961810900169e+01 -4.5911159288858521e+01 -4.5911637769112815e+01 -4.5963679167605278e+01 -4.5963877150734746e+01
 -4.5964356858094739e+01 -4.5912118755147830e+01 -4.5912318740284739e+01 -4.5964839081745730e+01 -4.5965039582543774e+01 -3.7589894329099934e+01 -3.7617250626522356e+01 -3.7618210964205474e+01 -3.7590845947845843e+01 -3.7620552096667410e+01
 -3.7593165575852431e+01 -2.9243876848296210e+01 -2.9247802319248834e+01 -2.9277083569048841e+01 -2.9281018328525999e+01 -2.9257501604002606e+01 -2.9290740382820889e+01 -3.7650586871331235e+01 -3.7689220010245698e+01 -3.7690185143272387e+01
 -3.7651542918031765e+01 -3.7692537971862563e+01 -3.7653873319291840e+01 -2.9318757561644183e+01 -2.9322703805387562e+01 -2.9369859620574037e+01 -2.9373820227909100e+01 -2.9332454061356700e+01 -2.9383605908496776e+01 -3.7622926692205311e+01
 -3.7595517987141804e+01 -3.7623920529697777e+01 -3.7596502424976180e+01 -2.9267537354072132e+01 -2.9300799386751432e+01 -2.9271799961796553e+01 -2.9305071765161880e+01 -3.7694924430873371e+01 -3.7656236620715781e+01 -3.7695923230614589e+01
 -3.7657225603091327e+01 -2.9342541935227601e+01 -2.9393730259114246e+01 -2.9346826463124319e+01 -2.9398030198302720e+01 -2.0755370478275960e+01 -2.0757647844135729e+01 -2.0770513978412712e+01 -2.0772792124493151e+01 -2.0764709524273865e+01
 -2.0779857879762265e+01 -2.0809171864452072e+01 -2.0811455347727311e+01 -2.0818535565196655e+01 -1.2179978146180819e+01 -1.2179594625265009e+01 -1.2193366290876858e+01 -1.2180661648918019e+01 -1.2232515232474590e+01 -1.2192992916739829e+01
 -1.2233548285844243e+01 -1.2194047111548771e+01 -1.2232872828111981e+01 -1.2182408698360563e+01 -1.2195785333979492e+01 -1.2184796481442230e+01 -1.2237667811251249e+01 -1.2198176481863623e+01 -1.2235271067680653e+01 -1.2297140664533558e+01
 -1.2381255543154046e+01 -1.2296810428433911e+01 -1.2382307506063089e+01 -1.2297840238356184e+01 -1.2381547482878270e+01 -1.2299540653064682e+01 -1.2386472366458253e+01 -1.2301970076956183e+01 -1.2383980233117345e+01 -2.0777135289524676e+01
 -2.0792292328440748e+01 -2.0795763945585097e+01 -2.0810935724343874e+01 -2.0830993649002057e+01 -2.0849674430670625e+01 -1.2188538896701331e+01 -1.2201915798011386e+01 -1.2193155909442281e+01 -1.2246044347561995e+01 -1.2206540674750856e+01
 -1.2241403750490045e+01 -1.2199353063368816e+01 -1.2212738463158120e+01 -1.2206659986726727e+01 -1.2259590995852411e+01 -1.2220056932356103e+01 -1.2252247829017076e+01 -1.2305692729014897e+01 -1.2394919315730716e+01 -1.2310375625816693e+01
 -1.2390168739351767e+01 -1.2316576838216035e+01 -1.2408584807417517e+01 -1.2323975574786319e+01 -1.2401104041225205e+01 -2.0851142417644894e+01 -2.0853434614742923e+01 -2.0860533852002931e+01 -2.0869611100120462e+01 -2.0871907329106062e+01
 -2.0879015023214656e+01 -1.2476936697580447e+01 -1.2567141894311494e+01 -1.2476699306296920e+01 -1.2568298662345878e+01 -1.2477805954961253e+01 -1.2567308584173462e+01 -1.2479436156434202e+01 -1.2572576290779269e+01 -1.2482030140985596e+01
 -1.2569869381477224e+01 -1.2633163848728111e+01 -1.2657646974080309e+01 -1.2633058043076698e+01 -1.2658848257459798e+01 -1.2634249286461937e+01 -1.2657722152459320e+01 -1.2635766263322530e+01 -1.2663170499556978e+01 -1.2638562688709651e+01
 -1.2660335547002081e+01 -2.0873018373535995e+01 -2.0891738749467120e+01 -2.0891510938802710e+01 -2.0910248223089980e+01 -1.2485676156126843e+01 -1.2581118535841702e+01 -1.2490528471349972e+01 -1.2576154384863472e+01 -1.2496670825538443e+01
 -1.2594921843610402e+01 -1.2504268257017999e+01 -1.2587199685120384e+01 -1.2642081751533768e+01 -1.2671752026440183e+01 -1.2647135653814887e+01 -1.2666658834800288e+01 -1.2653163325288329e+01 -1.2685615911216896e+01 -1.2660985123631651e+01
 -1.2677751353516195e+01 -7.7202219051416234e+00 -7.7403485065699211e+00 -7.7207549222727625e+00 -7.7410142122706818e+00 -7.7195916916304803e+00 -7.7396037493883671e+00 -7.8050174029227897e+00 -7.8042265165662306e+00 -7.8033277249227755e+00
 -3.1003916825518423e+00 -3.0961282843580991e+00 -3.1156721969924286e+00 -3.1089279400718350e+00 -3.0920400421774770e+00 -3.1037050392447099e+00 -3.1775628533687472e+00 -3.1695015272412514e+00 -3.1631421563862507e+00 -7.7196294471784830e+00
 -7.7395825729563184e+00 -7.7205821340669880e+00 -7.7405112973987116e+00 -7.8032131686838122e+00 -7.8041019574507846e+00 -3.0898521105425085e+00 -3.1011569747602477e+00 -3.0891746278354848e+00 -3.1003750198119162e+00 -3.1601141750753010e+00
 -3.1591670372696115e+00 -7.9188037628295271e+00 -7.9196632078402169e+00 -7.9178303784862356e+00 -8.0922321886662569e+00 -8.0914026742219320e+00 -8.0905002481682438e+00 -3.3139854900373149e+00 -3.3051226042556370e+00 -3.2981768586285924e+00
 -3.5798029586365079e+00 -3.5705890591345208e+00 -3.5637751833705309e+00 -7.9176723545836278e+00 -7.9185495195318891e+00 -8.0903950126140955e+00 -8.0913123929643547e+00 -3.2948960584500937e+00 -3.2938611607941315e+00 -3.5606044272220743e+00
 -3.5596192163939033e+00 -1.9309935788271659e+00 -1.9234599385141824e+00 -1.9380997771037614e+00 -1.9197691355339632e+00 -7.6320210565028346e-01 -7.5329965551349876e-01 -7.6147270951692325e-01 -7.1914875645691467e-01 3.3332690242587332e-01
 3.3585861232594305e-01 3.3511987122114423e-01 3.7636367971809509e-01 4.2325054821693653e-01 4.2327319462143387e-01 4.2327153316318983e-01 4.3839185558408700e-01 -1.9188472908821239e+00 -1.9127069057400810e+00 -7.4947711073251433e-01
 -7.1182608341626652e-01 3.3623171435830801e-01 3.7666933562231308e-01 4.2327404991187317e-01 4.3839676584568710e-01 -1.9836574873768509e+00 -1.9623577684400462e+00 -7.8603943995158887e-01 -7.3910796086464436e-01 3.3286400845508374e-01