DF-ISE text

Info {
  version = 1.0
  type    = dataset
  dimension   = 3
  nb_vertices = 5293
  nb_edges    = 23303
  nb_faces    = 30690
  nb_elements = 12980
  nb_regions  = 3
  datasets    = [ "ElectrostaticPotential" "eDensity" "hDensity" "LatticeTemperature" "ElectricField-Vector" ]
  functions   = [ ElectrostaticPotential eDensity hDensity LatticeTemperature ElectricField ]
}

Data {

  Dataset ("ElectrostaticPotential") {
    function  = ElectrostaticPotential
    type      = scalar
    dimension = 1
    location  = vertex
    validity  = [ "substrate" ]
    Values (5293) {
 -2.0478889853107930e+01 -2.0470671527711833e+01 -2.0478889853107930e+01 -2.0478889853107930e+01 -2.0470672075509082e+01 -2.0470671664656841e+01 -2.0494599031962665e+01 -2.0486381555272850e+01 -2.0455505119313823e+01 -2.0455506190639834e+01
 -2.0455505387128465e+01 -2.0471218555839531e+01 -2.0423356607117483e+01 -2.0423361121084639e+01 -2.0423357733934051e+01 -2.0439082806513369e+01 -2.0374748409061965e+01 -2.0374797815957301e+01 -2.0374760133873909e+01 -2.0390574073507825e+01
 -2.0310851921477049e+01 -2.0311551877230517e+01 -2.0310994093088691e+01 -2.0325080661909205e+01 -2.0251380399183709e+01 -2.0253296150836647e+01 -2.0251702970781192e+01 -2.0260874130551169e+01 -2.0195083483533594e+01 -2.0197844219109584e+01
 -2.0195488632411365e+01 -2.0201549057526705e+01 -2.0478889853107930e+01 -2.0470671664660546e+01 -2.0494599031962665e+01 -2.0486381692211321e+01 -2.0455505387142786e+01 -2.0471218823419104e+01 -2.0423357734903906e+01 -2.0439083920884887e+01
 -2.0374760461753510e+01 -2.0390584934851606e+01 -2.0311010823297138e+01 -2.0325254067025849e+01 -2.0251777955624494e+01 -2.0261413041291949e+01 -2.0195619473279297e+01 -2.0202279426222514e+01 -1.9747233818185599e+01 -1.9748306707027744e+01
 -1.9747304043280668e+01 -1.9748592713717603e+01 -1.9747338612512927e+01 -1.9748709031082498e+01 -2.0478889853107930e+01 -2.0470672075512933e+01 -2.0494599031962665e+01 -2.0486381589509197e+01 -2.0455506190655004e+01 -2.0471218622740601e+01
 -2.0423361123284799e+01 -2.0439083085507587e+01 -2.0374798693120280e+01 -2.0390577056440033e+01 -2.0311598367273451e+01 -2.0325151559549177e+01 -2.0253524589746583e+01 -2.0261209248215920e+01 -2.0198274145783863e+01 -2.0202135678686091e+01
 -2.0494599031962665e+01 -2.0486381726448080e+01 -2.0471218890321701e+01 -2.0439084199938016e+01 -2.0390587947804615e+01 -2.0325328027600627e+01 -2.0261772171624230e+01 -2.0202913986900352e+01 -1.9748865618540609e+01 -1.9749178550454573e+01
 -1.9749308110987823e+01 -2.0478889853107930e+01 -2.0470671664656429e+01 -2.0494599031962665e+01 -2.0486381540347939e+01 -2.0455505387126852e+01 -2.0471218526673372e+01 -2.0423357733756429e+01 -2.0439082684980011e+01 -2.0374760066047553e+01
 -2.0390572865477843e+01 -2.0310990536874474e+01 -2.0325059279829951e+01 -2.0251686095587942e+01 -2.0260793080947550e+01 -2.0195457749823085e+01 -2.0201423398090416e+01 -2.0478889853107930e+01 -2.0470671512786090e+01 -2.0477177747777052e+01
 -2.0468959925490203e+01 -2.0455505090121523e+01 -2.0453793589941721e+01 -2.0423356484113985e+01 -2.0421647072099180e+01 -2.0374747071704046e+01 -2.0373078513604728e+01 -2.0310833303944761e+01 -2.0310148194171354e+01 -2.0251328138904302e+01
 -2.0252435528991906e+01 -2.0195006671147507e+01 -2.0197328315634355e+01 -1.9747280350507690e+01 -1.9748545617408073e+01 -1.9747196063328296e+01 -1.9748219360440299e+01 -2.0494599031962665e+01 -2.0486381574584193e+01 -2.0471218593574125e+01
 -2.0439082963961155e+01 -2.0390575841447156e+01 -2.0325129472294051e+01 -2.0261122866812698e+01 -2.0201999220612713e+01 -2.0477177747777052e+01 -2.0468959917446089e+01 -2.0453793574215727e+01 -2.0421647008358541e+01 -2.0373078796872985e+01
 -2.0310188259885539e+01 -2.0252644122598660e+01 -2.0197728364179277e+01 -1.9749124390561857e+01 -1.9748766505197480e+01 -1.9281823818727549e+01 -1.9282142363589308e+01 -1.9281831981338257e+01 -1.9282165206121597e+01 -1.9281835484783727e+01
 -1.9282176144632690e+01 -1.8800858640509492e+01 -1.8800959240854077e+01 -1.8800859318627992e+01 -1.8800960926209701e+01 -1.8800859147484619e+01 -1.8800961280884881e+01 -1.9282444159416247e+01 -1.9282470031549543e+01 -1.9282482527090533e+01
 -1.8801100082506476e+01 -1.8801102042639982e+01 -1.8801102474775679e+01 -1.9281823763903148e+01 -1.9282152950051128e+01 -1.9281811809885905e+01 -1.9282123748368353e+01 -1.8800856951056723e+01 -1.8800957902995499e+01 -1.8800855261126376e+01
 -1.8800954885524355e+01 -1.9282455757912764e+01 -1.9282422538016867e+01 -1.8801098545112119e+01 -1.8801095044840412e+01 -2.0478889853107930e+01 -2.0470672075512955e+01 -2.0494599031962665e+01 -2.0486381589509300e+01 -2.0455506190655189e+01
 -2.0471218622740931e+01 -2.0423361123571716e+01 -2.0439083085563105e+01 -2.0374798821220924e+01 -2.0390577101533484e+01 -2.0311605304677414e+01 -2.0325156317242879e+01 -2.0253560339593417e+01 -2.0261245364067772e+01 -2.0198344971942973e+01
 -2.0202211474779233e+01 -2.0494599031962665e+01 -2.0486381726448183e+01 -2.0471218890322035e+01 -2.0439084199994319e+01 -2.0390587993611671e+01 -2.0325332868594113e+01 -2.0261809270086324e+01 -2.0202992174877988e+01 -1.9749081251798177e+01
 -1.9749396508958959e+01 -1.9749527268946771e+01 -2.0478889853107930e+01 -2.0470672075512958e+01 -2.0494599031962665e+01 -2.0486381589509300e+01 -2.0455506190655218e+01 -2.0471218622740935e+01 -2.0423361123617031e+01 -2.0439083085570299e+01
 -2.0374798841455981e+01 -2.0390577107943518e+01 -2.0311606401273224e+01 -2.0325156999510284e+01 -2.0253566033033653e+01 -2.0261250639485795e+01 -2.0198356469199624e+01 -2.0202222868042497e+01 -2.0494599031962665e+01 -2.0486381726448183e+01
 -2.0471218890322035e+01 -2.0439084200001410e+01 -2.0390587999929643e+01 -2.0325333542195203e+01 -2.0261814531073441e+01 -2.0203003597731353e+01 -1.9749130797040820e+01 -1.9749446199601678e+01 -1.9749577011150265e+01 -2.0494599031962665e+01
 -2.0486381574584293e+01 -2.0471218593574452e+01 -2.0439082964016151e+01 -2.0390575886069819e+01 -2.0325134178855087e+01 -2.0261158552515472e+01 -2.0202074072538281e+01 -2.0477177747777052e+01 -2.0468959917446071e+01 -2.0453793574215808e+01
 -2.0421647008693135e+01 -2.0373078936467884e+01 -2.0310195298749139e+01 -2.0252679149161334e+01 -2.0197797383638004e+01 -1.9749340872823787e+01 -1.9748979922079531e+01 -2.0494599031962665e+01 -2.0486381574584296e+01 -2.0471218593574456e+01
 -2.0439082964023317e+01 -2.0390575892452809e+01 -2.0325134858061190e+01 -2.0261163797896593e+01 -2.0202085393520168e+01 -2.0477177747777052e+01 -2.0468959917446071e+01 -2.0453793574215840e+01 -2.0421647008747598e+01 -2.0373078959026024e+01
 -2.0310196435402922e+01 -2.0252684834980204e+01 -2.0197808784245769e+01 -1.9749390331368140e+01 -1.9749029132363113e+01 -1.9282608808000422e+01 -1.9282635045709799e+01 -1.9282647649896184e+01 -1.8801195435244189e+01 -1.8801197428198890e+01
 -1.8801197831704592e+01 -1.9282651696233529e+01 -1.9282677960910469e+01 -1.9282690551484304e+01 -1.8801221763535327e+01 -1.8801223756852210e+01 -1.8801224147273224e+01 -1.9282620162518345e+01 -1.9282586308454544e+01 -1.8801193744081186e+01
 -1.8801190132117238e+01 -1.9282662956049450e+01 -1.9282629023384736e+01 -1.8801220028717243e+01 -1.8801216398006297e+01 -1.8304834004840998e+01 -1.8304869562230873e+01 -1.8304834006294726e+01 -1.8304869628759327e+01 -1.8304833813753280e+01
 -1.8304869456237782e+01 -1.7793885369737264e+01 -1.7793898616232713e+01 -1.7793885352313431e+01 -1.7793898600826907e+01 -1.7793885294723641e+01 -1.7793898540674654e+01 -1.8304932981813774e+01 -1.8304933065288587e+01 -1.8304932876058785e+01
 -1.7793926429893762e+01 -1.7793926413667851e+01 -1.7793926347443033e+01 -1.8304833378317433e+01 -1.8304868894156179e+01 -1.8304833114410982e+01 -1.8304868518348190e+01 -1.7793885216683389e+01 -1.7793898451136421e+01 -1.7793885177806999e+01
 -1.7793898404315279e+01 -1.8304932228060323e+01 -1.8304931791982124e+01 -1.7793926246554630e+01 -1.7793926193297576e+01 -1.6727350289236412e+01 -1.6727354643169477e+01 -1.6727350286808715e+01 -1.6727354640684261e+01 -1.6727350280460520e+01
 -1.6727354634033080e+01 -1.6727365405079382e+01 -1.6727365402414591e+01 -1.6727365395216161e+01 -1.6727350273447598e+01 -1.6727354626505271e+01 -1.6727350270338388e+01 -1.6727354623113275e+01 -1.6727365386988165e+01 -1.6727365383258334e+01
 -1.8304982311971077e+01 -1.8304982394388940e+01 -1.8304982189132417e+01 -1.7793950764011928e+01 -1.7793950746519052e+01 -1.7793950676058277e+01 -1.8304996534897498e+01 -1.8304996616009923e+01 -1.8304996405524825e+01 -1.7793958955610098e+01
 -1.7793958937629814e+01 -1.7793958865781491e+01 -1.8304981507811039e+01 -1.8304981052211353e+01 -1.7793950569356571e+01 -1.7793950513196037e+01 -1.8304995716209358e+01 -1.8304995256422508e+01 -1.7793958757403995e+01 -1.7793958700460955e+01
 -1.6727377767237261e+01 -1.6727377764423526e+01 -1.6727377756826488e+01 -1.6727387197945237e+01 -1.6727387195064537e+01 -1.6727387187297730e+01 -1.6727377748146274e+01 -1.6727377744212795e+01 -1.6727387178436498e+01 -1.6727387174424656e+01
 -1.5601368554223413e+01 -1.5601373217181081e+01 -1.5601368553807097e+01 -1.5601373216756828e+01 -1.5601368552781624e+01 -1.5601373215708660e+01 -1.5601386164344827e+01 -1.5601386163904094e+01 -1.5601386162813109e+01 -1.5601368551727106e+01
 -1.5601373214626648e+01 -1.5601368551281388e+01 -1.5601373214168056e+01 -1.5601386161684090e+01 -1.5601386161204763e+01 -1.4415937361542619e+01 -1.4415946500753137e+01 -1.4415937361310144e+01 -1.4415946500520016e+01 -1.4415937360739772e+01
 -1.4415946499948110e+01 -1.4415972468747416e+01 -1.4415972468512916e+01 -1.4415972467937683e+01 -1.4415937360155397e+01 -1.4415946499362223e+01 -1.4415937359908691e+01 -1.4415946499114906e+01 -1.4415972467348457e+01 -1.4415972467099762e+01
 -1.5601404687027292e+01 -1.5601404686570685e+01 -1.5601404685440153e+01 -1.5601425279350307e+01 -1.5601425278873181e+01 -1.5601425277692632e+01 -1.5601404684269891e+01 -1.5601404683772971e+01 -1.5601425276471646e+01 -1.5601425275953510e+01
 -1.4416011176780668e+01 -1.4416011176542534e+01 -1.4416011175958523e+01 -1.4416056601246312e+01 -1.4416056600992309e+01 -1.4416056600369735e+01 -1.4416011175360515e+01 -1.4416011175108185e+01 -1.4416056599732787e+01 -1.4416056599464213e+01
 -1.3171020652246050e+01 -1.3171040066371688e+01 -1.3171020652023094e+01 -1.3171040066148700e+01 -1.3171020651471592e+01 -1.3171040065597174e+01 -1.3171095410483403e+01 -1.3171095410260367e+01 -1.3171095409708798e+01 -1.3171020650899314e+01
 -1.3171040065024956e+01 -1.3171020650655089e+01 -1.3171040064780788e+01 -1.3171095409136639e+01 -1.3171095408892532e+01 -1.1866536003787795e+01 -1.1866577285942791e+01 -1.1866536003707051e+01 -1.1866577285862142e+01 -1.1866536003492540e+01
 -1.1866577285647873e+01 -1.1866695148235774e+01 -1.1866695148155454e+01 -1.1866695147942057e+01 -1.1866536003246571e+01 -1.1866577285402201e+01 -1.1866536003133335e+01 -1.1866577285289114e+01 -1.1866695147697376e+01 -1.1866695147584746e+01
 -1.3171178399123791e+01 -1.3171178398898498e+01 -1.3171178398341535e+01 -1.3171276541199212e+01 -1.3171276540959012e+01 -1.3171276540365803e+01 -1.3171178397764070e+01 -1.3171178397517794e+01 -1.3171276539751698e+01 -1.3171276539490128e+01
 -1.1866872382574289e+01 -1.1866872382492268e+01 -1.1866872382274858e+01 -1.1867082763281152e+01 -1.1867082763184710e+01 -1.1867082762932245e+01 -1.1866872382026319e+01 -1.1866872381912144e+01 -1.1867082762648279e+01 -1.1867082762519319e+01
 -2.0478889853107930e+01 -2.0470672075512955e+01 -2.0494599031962665e+01 -2.0486381589509296e+01 -2.0455506190655179e+01 -2.0471218622740931e+01 -2.0423361123553658e+01 -2.0439083085560320e+01 -2.0374798813156410e+01 -2.0390577099053072e+01
 -2.0311604867502723e+01 -2.0325156053178631e+01 -2.0253558061842384e+01 -2.0261243315719231e+01 -2.0198340325846001e+01 -2.0202206999770716e+01 -2.0494599031962665e+01 -2.0486381726448180e+01 -2.0471218890322032e+01 -2.0439084199991619e+01
 -2.0390587991204427e+01 -2.0325332611874082e+01 -2.0261807257894784e+01 -2.0202987751506232e+01 -1.9749057797117864e+01 -1.9749373071630810e+01 -1.9749503839548723e+01 -2.0478889853107930e+01 -2.0470672075512891e+01 -2.0494599031962665e+01
 -2.0486381589509183e+01 -2.0455506190654830e+01 -2.0471218622740558e+01 -2.0423361123211791e+01 -2.0439083085496254e+01 -2.0374798661484213e+01 -2.0390577046826721e+01 -2.0311596662814452e+01 -2.0325150541000038e+01 -2.0253515859187452e+01
 -2.0261201445654127e+01 -2.0198256794437619e+01 -2.0202119042611386e+01 -2.0494599031962665e+01 -2.0486381726448066e+01 -2.0471218890321659e+01 -2.0439084199927024e+01 -2.0390587938488199e+01 -2.0325327038895182e+01 -2.0261764518185405e+01
 -2.0202897567632785e+01 -1.9748802606713806e+01 -1.9749115611967067e+01 -1.9749245206954104e+01 -2.0494599031962665e+01 -2.0486381574584293e+01 -2.0471218593574452e+01 -2.0439082964013345e+01 -2.0390575883576005e+01 -2.0325133913441896e+01
 -2.0261156496460316e+01 -2.0202069584908617e+01 -2.0477177747777052e+01 -2.0468959917446071e+01 -2.0453793574215791e+01 -2.0421647008671069e+01 -2.0373078927330202e+01 -2.0310194838189364e+01 -2.0252676837796582e+01 -2.0197792705067275e+01
 -1.9749317428318449e+01 -1.9748956456147290e+01 -2.0494599031962665e+01 -2.0486381574584179e+01 -2.0471218593574079e+01 -2.0439082963949762e+01 -2.0390575831779451e+01 -2.0325128448263424e+01 -2.0261115032714780e+01 -2.0201982532511902e+01
 -2.0477177747777052e+01 -2.0468959917446039e+01 -2.0453793574215521e+01 -2.0421647008269336e+01 -2.0373078760969609e+01 -2.0310186461719454e+01 -2.0252635254656472e+01 -2.0197710877430204e+01 -1.9749061426767167e+01 -1.9748703452832839e+01
 -1.9282582512287401e+01 -1.9282608751571381e+01 -1.9282621356065693e+01 -1.8801174610798643e+01 -1.8801176603778803e+01 -1.8801177006967894e+01 -1.9282383246861592e+01 -1.9282409125671098e+01 -1.9282421623461733e+01 -1.8801055807856070e+01
 -1.8801057768263526e+01 -1.8801058199671914e+01 -1.9282593865627572e+01 -1.9282560008766758e+01 -1.8801172918591057e+01 -1.8801169306152339e+01 -1.9282394843607364e+01 -1.9282361613198489e+01 -1.8801054267720456e+01 -1.8801050765901355e+01
 -2.0478889853107930e+01 -2.0470672068045797e+01 -2.0494599031962665e+01 -2.0486381551541307e+01 -2.0455506176042025e+01 -2.0471218548546855e+01 -2.0423361059286780e+01 -2.0439082776062239e+01 -2.0374797026315143e+01 -2.0390573727881279e+01
 -2.0311536113761576e+01 -2.0325070859728154e+01 -2.0253237405456577e+01 -2.0260821491147428e+01 -2.0197743020842150e+01 -2.0201451666933565e+01 -2.0494599031962665e+01 -2.0486381688479831e+01 -2.0471218816126640e+01 -2.0439083890440056e+01
 -2.0390584591543153e+01 -2.0325244466809949e+01 -2.0261361205804622e+01 -2.0202183068047368e+01 -1.9748155802595299e+01 -1.9748442105931989e+01 -1.9748558556261838e+01 -2.0477177747777070e+01 -2.0468959278360479e+01 -2.0477177747777070e+01
 -2.0468959426052937e+01 -2.0453792324170980e+01 -2.0453792613042225e+01 -2.0421641728664063e+01 -2.0421642946111167e+01 -2.0373019427824779e+01 -2.0373032181223358e+01 -2.0309338422452932e+01 -2.0309487562790594e+01 -2.0250269380213584e+01
 -2.0250597900905134e+01 -2.0194215552090657e+01 -2.0194624444345617e+01 -2.0477177747777070e+01 -2.0468959426057133e+01 -2.0453792613058560e+01 -2.0421642947282898e+01 -2.0373032555662569e+01 -2.0309505325404917e+01 -2.0250674359811981e+01
 -2.0194756654996404e+01 -1.9746902170086795e+01 -1.9746972706500340e+01 -1.9747007430913857e+01 -2.0494599031962665e+01 -2.0486381536616385e+01 -2.0471218519380663e+01 -2.0439082654527954e+01 -2.0390572519484088e+01 -2.0325049445208549e+01
 -2.0260740288893029e+01 -2.0201325781522183e+01 -2.0477177747777052e+01 -2.0468959917441222e+01 -2.0453793574196212e+01 -2.0421647005287564e+01 -2.0373077649054498e+01 -2.0310131663602821e+01 -2.0252375948266199e+01 -2.0197226459611187e+01
 -1.9748394937374311e+01 -1.9748068333272393e+01 -2.0477177747777070e+01 -2.0468959426052468e+01 -2.0453792613040374e+01 -2.0421642945894490e+01 -2.0373032103595577e+01 -2.0309483779447405e+01 -2.0250580658457412e+01 -2.0194593169997958e+01
 -2.0477177747777070e+01 -2.0468959262263336e+01 -2.0453792292683335e+01 -2.0421641595743989e+01 -2.0373017969318497e+01 -2.0309318827855446e+01 -2.0250216083748615e+01 -2.0194137894989030e+01 -1.9746948912337597e+01 -1.9746864252981908e+01
 -1.9282032252995080e+01 -1.9282055118523466e+01 -1.9282066066888707e+01 -1.8800889766954427e+01 -1.8800891453500846e+01 -1.8800891807182254e+01 -1.9281664505583844e+01 -1.9281672693149535e+01 -1.9281676207150166e+01 -1.8800773087821831e+01
 -1.8800773767136587e+01 -1.8800773594492576e+01 -1.9282042843262776e+01 -1.9282013609377625e+01 -1.8800888424186041e+01 -1.8800885402919587e+01 -1.9281664450525799e+01 -1.9281652459904794e+01 -1.8800771391679483e+01 -1.8800769697208079e+01
 -1.8304969587814643e+01 -1.8304969670148065e+01 -1.8304969464645424e+01 -1.7793946575408960e+01 -1.7793946557837174e+01 -1.7793946487181508e+01 -1.8304907102098174e+01 -1.8304907185347851e+01 -1.8304906995430343e+01 -1.7793917866906003e+01
 -1.7793917850442043e+01 -1.7793917783627450e+01 -1.8304968783024126e+01 -1.8304968327282232e+01 -1.7793946380278925e+01 -1.7793946324033310e+01 -1.8304906346563893e+01 -1.8304905910064630e+01 -1.7793917682128683e+01 -1.7793917628612292e+01
 -1.6727391217761426e+01 -1.6727391214872174e+01 -1.6727391207091401e+01 -1.6727390122377113e+01 -1.6727390119469689e+01 -1.6727390111679011e+01 -1.6727391198225387e+01 -1.6727391194214306e+01 -1.6727390102849146e+01 -1.6727390098866984e+01
 -1.8304831616507357e+01 -1.8304831682617454e+01 -1.8304831508730853e+01 -1.7793886140757131e+01 -1.7793886124841134e+01 -1.7793886063420370e+01 -1.8304790075023138e+01 -1.8304790075880799e+01 -1.8304789881483043e+01 -1.7793871128258353e+01
 -1.7793871110121341e+01 -1.7793871050759488e+01 -1.8304830944853336e+01 -1.8304830568149146e+01 -1.7793885972563245e+01 -1.7793885925179609e+01 -1.8304789443671982e+01 -1.8304789178602967e+01 -1.7793870970876846e+01 -1.7793870931214791e+01
 -1.6727386740428361e+01 -1.6727386737392109e+01 -1.6727386729390371e+01 -1.6727384930183298e+01 -1.6727384926962319e+01 -1.6727384918663681e+01 -1.6727386720481608e+01 -1.6727386716507866e+01 -1.6727384909646819e+01 -1.6727384905690148e+01
 -1.5601444524388876e+01 -1.5601444523854946e+01 -1.5601444522535978e+01 -1.5601459749249548e+01 -1.5601459748547873e+01 -1.5601459746817925e+01 -1.5601444521174649e+01 -1.5601444520597763e+01 -1.5601459745036372e+01 -1.5601459744282396e+01
 -1.4416101771363339e+01 -1.4416101771046320e+01 -1.4416101770269568e+01 -1.4416139858843241e+01 -1.4416139858329599e+01 -1.4416139857067723e+01 -1.4416101769475352e+01 -1.4416101769140642e+01 -1.4416139855772363e+01 -1.4416139855224753e+01
 -1.5601469324338321e+01 -1.5601469323290786e+01 -1.5601469320707348e+01 -1.5601472561341108e+01 -1.5601472559997489e+01 -1.5601472556677068e+01 -1.5601469318043311e+01 -1.5601469316914031e+01 -1.5601472553240482e+01 -1.5601472551778846e+01
 -1.4416165195064234e+01 -1.4416165194129837e+01 -1.4416165191818513e+01 -1.4416174067635298e+01 -1.4416174066322821e+01 -1.4416174063055410e+01 -1.4416165189420758e+01 -1.4416165188398315e+01 -1.4416174059631850e+01 -1.4416174058159601e+01
 -1.3171374956966707e+01 -1.3171374956661863e+01 -1.3171374955909961e+01 -1.3171458604105412e+01 -1.3171458603587263e+01 -1.3171458602305776e+01 -1.3171374955133137e+01 -1.3171374954802848e+01 -1.3171458600976441e+01 -1.3171458600409458e+01
 -1.1867294600552089e+01 -1.1867294600389565e+01 -1.1867294599974340e+01 -1.1867475350883318e+01 -1.1867475350492130e+01 -1.1867475349505046e+01 -1.1867294599522578e+01 -1.1867294599322436e+01 -1.1867475348449657e+01 -1.1867475347988229e+01
 -1.3171514601941412e+01 -1.3171514600937776e+01 -1.3171514598432861e+01 -1.3171534283950562e+01 -1.3171534282480536e+01 -1.3171534278778394e+01 -1.3171514595797325e+01 -1.3171514594659660e+01 -1.3171534274827433e+01 -1.3171534273100587e+01
 -1.1867596726833249e+01 -1.1867596725889298e+01 -1.1867596723491582e+01 -1.1867639462026920e+01 -1.1867639460515061e+01 -1.1867639456631903e+01 -1.1867596720899122e+01 -1.1867596719753502e+01 -1.1867639452357320e+01 -1.1867639450436805e+01
 -1.0502308261846034e+01 -1.0502395348730825e+01 -1.0502308263607919e+01 -1.0502395350493726e+01 -1.0502308267833440e+01 -1.0502395354721690e+01 -1.0502644561769964e+01 -1.0502644563535563e+01 -1.0502644567770112e+01 -1.0502308272012547e+01
 -1.0502395358903270e+01 -1.0502308273725914e+01 -1.0502395360617685e+01 -1.0502644571958433e+01 -1.0502644573675708e+01 -9.0779707392047957e+00 -9.0781518212280243e+00 -9.0779707620064780e+00 -9.0781518440431270e+00 -9.0779708170237896e+00
 -9.0781518990927879e+00 -9.0786722083187748e+00 -9.0786722311692110e+00 -9.0786722863042790e+00 -9.0779708719857695e+00 -9.0781519540871400e+00 -9.0779708947279492e+00 -9.0781519768427685e+00 -9.0786723413842765e+00 -9.0786723641754854e+00
 -1.0503020945161010e+01 -1.0503020946926986e+01 -1.0503020951162611e+01 -1.0503470325548586e+01 -1.0503470327298265e+01 -1.0503470331494370e+01 -1.0503020955352262e+01 -1.0503020957070181e+01 -1.0503470335644211e+01 -1.0503470337345565e+01
 -9.0794644347227607e+00 -9.0794644576079104e+00 -9.0794645128270606e+00 -9.0804205714320947e+00 -9.0804205942912084e+00 -9.0804206494474542e+00 -9.0794645679915664e+00 -9.0794645908179437e+00 -9.0804207045489562e+00 -9.0804207273492423e+00
 -7.5927706243022319e+00 -7.5931371368964751e+00 -7.5927708845307063e+00 -7.5931373972972089e+00 -7.5927715130333233e+00 -7.5931380262158985e+00 -7.5941985600877269e+00 -7.5941988209657580e+00 -7.5941994510375119e+00 -7.5927721418825547e+00
 -7.5931386554816758e+00 -7.5927724024497403e+00 -7.5931389162215961e+00 -7.5942000814575525e+00 -7.5942003426759888e+00 -6.0452167093577485e+00 -6.0459211052898088e+00 -6.0452196428307872e+00 -6.0459240408621273e+00 -6.0452267352514744e+00
 -6.0459311383648453e+00 -6.0479897451658777e+00 -6.0479926868261957e+00 -6.0479997990503769e+00 -6.0452338426460681e+00 -6.0459382508600532e+00 -6.0452367910906064e+00 -6.0459412014224698e+00 -6.0480069262994647e+00 -6.0480098829823321e+00
 -7.5958383449485005e+00 -7.5958386064293535e+00 -7.5958392379576054e+00 -7.5978576547873011e+00 -7.5978579164347435e+00 -7.5978585483658847e+00 -7.5958398698358280e+00 -7.5958401316588207e+00 -7.5978591806479807e+00 -7.5978594426386374e+00
 -6.0512724164695939e+00 -6.0512753671510158e+00 -6.0512825011823388e+00 -6.0554685918329012e+00 -6.0554715492114219e+00 -6.0554786994427880e+00 -6.0512896502782478e+00 -6.0512926160219784e+00 -6.0554858647833969e+00 -6.0554888372690527e+00
 -4.4325202284660437e+00 -4.4337406321150086e+00 -4.4325531485344918e+00 -4.4337735764987301e+00 -4.4326329748716979e+00 -4.4338534621214336e+00 -4.4374171440534287e+00 -4.4374501610277273e+00 -4.4375302227455977e+00 -4.4327133140674517e+00
 -4.4339338613312052e+00 -4.4327467478251075e+00 -4.4339673201334637e+00 -4.4376107991657587e+00 -4.4376443316740506e+00 -3.6003966208917011e+00 -3.6008296047208317e+00 -3.6005562419810540e+00 -3.6018459203578059e+00 -3.6020056595480270e+00
 -3.6009881510449242e+00 -3.6009461735783610e+00 -3.6023958883177460e+00 -3.6013754077215605e+00 -2.7486787346035184e+00 -2.7493293819800897e+00 -2.7490660291832518e+00 -2.7497167443259825e+00 -2.7502314505759671e+00 -2.7508825693601322e+00
 -2.7509446804030815e+00 -2.7513322709489447e+00 -2.7524991788476338e+00 -3.6037593372541292e+00 -3.6063133973966437e+00 -3.6064734811927779e+00 -3.6039181120283144e+00 -3.6068645536418096e+00 -3.6043059343027730e+00 -2.7522458487947605e+00
 -2.7528974581023915e+00 -2.7551779420685776e+00 -2.7558303775183353e+00 -2.7545153210283999e+00 -2.7574502864986408e+00 -3.6013429505671128e+00 -3.6027929762986712e+00 -3.6017693852334243e+00 -3.6015094387905999e+00 -3.6029595964783798e+00
 -3.6019346735289193e+00 -2.7526288311556266e+00 -2.7530167134625012e+00 -2.7541848212996842e+00 -2.7533487270006662e+00 -2.7537367410441731e+00 -2.7549053700247819e+00 -3.6072625001311707e+00 -3.6047004942264498e+00 -3.6074294797471103e+00
 -3.6048660278078732e+00 -2.7562022952934004e+00 -2.7591393729585270e+00 -2.7569234129305644e+00 -2.7598613828316925e+00 -4.4435445231044532e+00 -4.4435776626170913e+00 -4.4436580211193455e+00 -4.4519372083128248e+00 -4.4519704850432555e+00
 -4.4520511762291495e+00 -4.4437388956505242e+00 -4.4437725520236313e+00 -4.4521323854302111e+00 -4.4521661810069650e+00 -3.6098418572407427e+00 -3.6140978232473446e+00 -3.6142585495420332e+00 -3.6100011079032766e+00 -3.6146511847527028e+00
 -3.6103900891238028e+00 -2.7591574465580559e+00 -2.7598109108181297e+00 -2.7643100556622429e+00 -2.7649650899021823e+00 -2.7614333465754228e+00 -2.7665913803477991e+00 -3.6194042437310388e+00 -3.6254875085009011e+00 -3.6256491964773634e+00
 -3.6195643091519911e+00 -3.6260441752402430e+00 -3.6199552728135336e+00 -2.7708179095551739e+00 -2.7714749375862859e+00 -2.7788427980799115e+00 -2.7795024721419761e+00 -2.7731061277929605e+00 -2.7811401860955618e+00 -3.6150507102156748e+00
 -3.6107858215006821e+00 -3.6152183485343667e+00 -3.6109518444715172e+00 -2.7631250181861859e+00 -2.7682869976119231e+00 -2.7638481151519265e+00 -2.7690117554653590e+00 -3.6264460751580598e+00 -3.6203530094168381e+00 -3.6266147060529286e+00
 -3.6205198689236511e+00 -2.7748067667859284e+00 -2.7828475415822767e+00 -2.7755336403049364e+00 -2.7835772538367118e+00 -1.8738038561166583e+00 -1.8741307685410244e+00 -1.8762915629621688e+00 -1.8766187846987470e+00 -1.8751586665377415e+00
 -1.8776478053217955e+00 -1.8827135992972284e+00 -1.8830427467911184e+00 -1.8840759460180327e+00 -9.6163475485317440e-01 -9.6160195647371549e-01 -9.6373712804401068e-01 -9.6166423329194539e-01 -9.6995893506256703e-01 -9.6370697459183807e-01
 -9.7001120398745977e-01 -9.6376483758465747e-01 -9.6998620368492872e-01 -9.6184786923002641e-01 -9.6394676001290958e-01 -9.6211696200645580e-01 -9.7046081176054622e-01 -9.6421607922862540e-01 -9.7019108894606298e-01 -9.8032203364356751e-01
 -9.9415243425922806e-01 -9.8029766663041140e-01 -9.9421831185408516e-01 -9.8035190099765868e-01 -9.9417427979862072e-01 -9.8053088683910616e-01 -9.9468678228350305e-01 -9.8080678628652962e-01 -9.9439817286021703e-01 -1.8769952488273605e+00
 -1.8794862106529118e+00 -1.8797799015165528e+00 -1.8822734678944737e+00 -1.8859195147125956e+00 -1.8887134765444538e+00 -9.6260364284094158e-01 -9.6470251876548252e-01 -9.6321719409991646e-01 -9.7156462623001283e-01 -9.6531718074770256e-01
 -9.7094785690090313e-01 -9.6408176252451461e-01 -9.6618208932406724e-01 -9.6510524449056134e-01 -9.7345975413734365e-01 -9.6720719254146892e-01 -9.7243138807637863e-01 -9.8129363979464079e-01 -9.9580723191932241e-01 -9.8191721153658029e-01
 -9.9517222670920158e-01 -9.8278473336119865e-01 -9.9772285572593777e-01 -9.8382139047174666e-01 -9.9667344304912464e-01 -1.8898152225736438e+00 -1.8901473487975853e+00 -1.8911861261310297e+00 -1.8929896229038081e+00 -1.8933231225906741e+00
 -1.8943644308453422e+00 -1.0102468796737487e+00 -1.0259063980123795e+00 -1.0102291852093837e+00 -1.0260122007524326e+00 -1.0103166769562577e+00 -1.0259146726548389e+00 -1.0104957486632422e+00 -1.0265196881391152e+00 -1.0108055817456401e+00
 -1.0261857547672495e+00 -1.0376291862690672e+00 -1.0420706095656465e+00 -1.0376308200830393e+00 -1.0421934287279284e+00 -1.0377493668023936e+00 -1.0420636522526285e+00 -1.0379159914746341e+00 -1.0427182383546989e+00 -1.0382700041606767e+00
 -1.0423555820923289e+00 -1.8930356575744192e+00 -1.8958368313259406e+00 -1.8962165841785912e+00 -1.8990208682848964e+00 -1.0112851562836962e+00 -1.0276637252644896e+00 -1.0119384861209400e+00 -1.0269891107205045e+00 -1.0127982069411143e+00
 -1.0296038286252773e+00 -1.0138671628062808e+00 -1.0285125984783421e+00 -1.0387292161884831e+00 -1.0438727064330595e+00 -1.0394219723901319e+00 -1.0431719074538808e+00 -1.0402602104696939e+00 -1.0458238116605116e+00 -1.0413703871827689e+00
 -1.0447053103989754e+00 -4.7404822163143584e-01 -4.7681434161743830e-01 -4.7427714906577462e-01 -4.7709947079586756e-01 -4.7372870946037104e-01 -4.7645463895683349e-01 -4.8637471174272456e-01 -4.8604785611923568e-01 -4.8564206262869197e-01
 3.7508180369447863e-02 3.9018300202916190e-02 3.6752044204279716e-02 3.9393096713850814e-02 4.0247586227815095e-02 4.1024668762289725e-02 3.0165805937901188e-02 3.3265947046121395e-02 3.5252793895739022e-02 -4.7353918934341827e-01
 -4.7624737744980711e-01 -4.7353111499052419e-01 -4.7623284449884051e-01 -4.8541010909887705e-01 -4.8538586959527596e-01 4.0874146118110480e-02 4.1754461275182654e-02 4.1123493774023856e-02 4.2028485071308241e-02 3.6109990377936170e-02
 3.6422450060662317e-02 -5.0327583035991763e-01 -5.0361439550621734e-01 -5.0285873310729923e-01 -5.3070774748465910e-01 -5.3040344694465547e-01 -5.3002933725825996e-01 1.3488396038598732e-02 1.6768182583849260e-02 1.8883253208330574e-02
 -2.2364713331694319e-02 -1.9268234440027524e-02 -1.7317251395104542e-02 -5.0262156460184315e-01 -5.0259691739934864e-01 -5.2981846999811866e-01 -5.2980831162508790e-01 1.9793011126597006e-02 2.0123851389541227e-02 -1.6462420195118812e-02
 -1.6144275424789727e-02 1.6512026247532494e-01 1.6760153850681156e-01 1.6616495993160094e-01 1.7370772032811888e-01 2.8972910697523602e-01 2.9223584807279468e-01 2.9179053122015269e-01 3.0895421258466071e-01 3.7434581423863417e-01
 3.7453109757445602e-01 3.7452276259186740e-01 3.8969569783788494e-01 4.2334266396967030e-01 4.2335989735351520e-01 4.2335987868127550e-01 4.3840730821964874e-01 1.6875766853180196e-01 1.7562074125529434e-01 2.9278815391883539e-01
 3.1012637276238003e-01 3.7454253965719547e-01 3.8974533785064325e-01 4.2335993768512387e-01 4.3841189804611025e-01 1.6233391981611900e-01 1.7083429717385035e-01 2.9081607763285566e-01 3.0907838865128578e-01 3.7450573711357138e-01
 3.8973506812438652e-01 4.2335985528173398e-01 4.3841188615869969e-01 1.7336791872632967e-01 3.1115331900293991e-01 3.9044236363749779e-01 4.3906939386444704e-01 4.5545530594979461e-01 4.5545941711636012e-01 4.5545941712654259e-01