DF-ISE text

Info {
  version = 1.0
  type    = dataset
  dimension   = 3
  nb_vertices = 5293
  nb_edges    = 23303
  nb_faces    = 30690
  nb_elements = 12980
  nb_regions  = 3
  datasets    = [ "ElectrostaticPotential" "eDensity" "hDensity" "LatticeTemperature" "ElectricField-Vector" ]
  functions   = [ ElectrostaticPotential eDensity hDensity LatticeTemperature ElectricField ]
}

Data {

  Dataset ("ElectrostaticPotential") {
    function  = ElectrostaticPotential
    type      = scalar
    dimension = 1
    location  = vertex
    validity  = [ "substrate" ]
    Values (5293) {
 -4.5047888985310789e+02 -4.5047067152761377e+02 -4.5047888985310789e+02 -4.5047888985310789e+02 -4.5047067207542864e+02 -4.5047067166456162e+02 -4.5049459903196259e+02 -4.5048638155527203e+02 -4.5045550459264473e+02 -4.5045550575876462e+02
 -4.5045550487583347e+02 -4.5047121854756352e+02 -4.5042238865258281e+02 -4.5042256729957791e+02 -4.5042241801346097e+02 -4.5043905243129961e+02 -4.4995168001143270e+02 -4.5002636312093199e+02 -4.4996374060863684e+02 -4.5036357412399821e+02
 -4.4828241049988799e+02 -4.4839433699229187e+02 -4.4829848356785925e+02 -4.4864649491629689e+02 -4.4654172181023006e+02 -4.4666635758667974e+02 -4.4655722285394518e+02 -4.4681769196950449e+02 -4.4479334353839323e+02 -4.4491916406318359e+02
 -4.4480665452897750e+02 -4.4499718852155593e+02 -4.5047888985310789e+02 -4.5047067166456588e+02 -4.5049459903196259e+02 -4.5048638169221050e+02 -4.5045550487828928e+02 -4.5047121881549850e+02 -4.5042242250130823e+02 -4.5043905482472144e+02
 -4.4996566256404873e+02 -4.5036467500475231e+02 -4.4830201226362033e+02 -4.4866368264777054e+02 -4.4656169777766223e+02 -4.4683892897658876e+02 -4.4481157267105897e+02 -4.4501766847546014e+02 -4.3059587678156373e+02 -4.3063494473957439e+02
 -4.3059764806281379e+02 -4.3064097117424797e+02 -4.3059835124375866e+02 -4.3064337551934022e+02 -4.5047888985310789e+02 -4.5047067207543461e+02 -4.5049459903196259e+02 -4.5048638158950843e+02 -4.5045550576964450e+02 -4.5047121861467610e+02
 -4.5042258727074693e+02 -4.5043905347889358e+02 -4.5003497881745739e+02 -4.5036424571141794e+02 -4.4841161994553312e+02 -4.4866277980063359e+02 -4.4669116848893651e+02 -4.4684452914386821e+02 -4.4494999443544219e+02 -4.4503133807757740e+02
 -4.5049459903196259e+02 -4.5048638172644723e+02 -4.5047121888260267e+02 -4.5043905583657170e+02 -4.5036531607053081e+02 -4.4868043979441416e+02 -4.4686672017945136e+02 -4.4505311963426465e+02 -4.3065901163914327e+02 -4.3066557285027466e+02
 -4.3066820287108982e+02 -4.5047888985310789e+02 -4.5047067166456105e+02 -4.5049459903196259e+02 -4.5048638154034711e+02 -4.5045550487467648e+02 -4.5047121851831184e+02 -4.5042241589007460e+02 -4.5043905200576415e+02 -4.4996283117141724e+02
 -4.5036331612218265e+02 -4.4829673526719841e+02 -4.4864179808124078e+02 -4.4655481369337389e+02 -4.4681092188258339e+02 -4.4480376626247892e+02 -4.4498951083665861e+02 -4.5047888985310789e+02 -4.5047067151268726e+02 -4.5047717774777703e+02
 -4.5046895992537088e+02 -4.5045550455931772e+02 -4.5045379299535040e+02 -4.5042238093645426e+02 -4.5042063361731630e+02 -4.4994843881296225e+02 -4.4996245162657624e+02 -4.4827754010961002e+02 -4.4834646110417231e+02 -4.4653617588879200e+02
 -4.4663325744482637e+02 -4.4478759106010676e+02 -4.4489726948268259e+02 -4.3059626092208327e+02 -4.3063857991935447e+02 -4.3059374276160958e+02 -4.3063088302571759e+02 -4.5049459903196259e+02 -4.5048638157458333e+02 -4.5047121858542192e+02
 -4.5043905304530011e+02 -4.5036398059614777e+02 -4.4865766609669640e+02 -4.4683703615480613e+02 -4.4502272166028371e+02 -4.5047717774777703e+02 -4.5046895991732890e+02 -4.5045379299038058e+02 -4.5042065188881963e+02 -4.4996972200909869e+02
 -4.4836179283785191e+02 -4.4665593273194690e+02 -4.4492597024133187e+02 -4.3066279743102240e+02 -4.3065433170571413e+02 -4.1629125065678903e+02 -4.1630266179560147e+02 -4.1629141457308714e+02 -4.1630311041951711e+02 -4.1629140207416663e+02
 -4.1630322606651538e+02 -4.0194763771470059e+02 -4.0195129884514336e+02 -4.0194764184200523e+02 -4.0195132116309577e+02 -4.0194760704574588e+02 -4.0195129141672163e+02 -4.1631471074065774e+02 -4.1631521346654523e+02 -4.1631533905252451e+02
 -4.0195674893423899e+02 -4.0195677468399640e+02 -4.0195674075665198e+02 -4.1629097574149534e+02 -4.1630250246220317e+02 -4.1629061545136352e+02 -4.1630175980420267e+02 -4.0194751974105378e+02 -4.0195117150890735e+02 -4.0194746390731007e+02
 -4.0195108456481472e+02 -4.1631450568616850e+02 -4.1631366170390999e+02 -4.0195660239187032e+02 -4.0195650221552006e+02 -4.5047888985310789e+02 -4.5047067207543495e+02 -4.5049459903196259e+02 -4.5048638158950848e+02 -4.5045550577180228e+02
 -4.5047121861470021e+02 -4.5042259123668879e+02 -4.5043905356606069e+02 -4.5003669091053257e+02 -4.5036432306599016e+02 -4.4841515960054392e+02 -4.4866536133311672e+02 -4.4669648699731073e+02 -4.4684937748761882e+02 -4.4495691537679011e+02
 -4.4503814584717372e+02 -4.5049459903196259e+02 -4.5048638172644735e+02 -4.5047121888262438e+02 -4.5043905591525083e+02 -4.5036538611631067e+02 -4.4868297885050197e+02 -4.4687153764135394e+02 -4.4505992226367317e+02 -4.3066905375064511e+02
 -4.3067564024303533e+02 -4.3067826592112999e+02 -4.5047888985310789e+02 -4.5047067207543506e+02 -4.5049459903196259e+02 -4.5048638158950848e+02 -4.5045550577215306e+02 -4.5047121861470396e+02 -4.5042259188145664e+02 -4.5043905357977047e+02
 -4.5003696929163823e+02 -4.5036433523280920e+02 -4.4841573828586837e+02 -4.4866576839409902e+02 -4.4669736533359270e+02 -4.4685015253647992e+02 -4.4495807367202804e+02 -4.4503925220812732e+02 -4.5049459903196259e+02 -4.5048638172644735e+02
 -4.5047121888262768e+02 -4.5043905592740941e+02 -4.5036539694228964e+02 -4.4868337267116692e+02 -4.4687229606641966e+02 -4.4506101217511400e+02 -4.3067119726858647e+02 -4.3067778106758618e+02 -4.3068040103183063e+02 -4.5049459903196259e+02
 -4.5048638157458350e+02 -4.5047121858544580e+02 -4.5043905313153874e+02 -4.5036405711299932e+02 -4.4866019413442348e+02 -4.4684178587172624e+02 -4.4502939449412946e+02 -4.5047717774777703e+02 -4.5046895991732941e+02 -4.5045379299279762e+02
 -4.5042065600857194e+02 -4.4997135567266804e+02 -4.4836518410730486e+02 -4.4666104711189189e+02 -4.4493264544020298e+02 -4.3067277039937591e+02 -4.3066423285003941e+02 -4.5049459903196259e+02 -4.5048638157458350e+02 -4.5047121858544944e+02
 -4.5043905314518901e+02 -4.5036406922415330e+02 -4.4866059506146451e+02 -4.4684254938626185e+02 -4.4503048478618513e+02 -4.5047717774777703e+02 -4.5046895991732941e+02 -4.5045379299319893e+02 -4.5042065669255845e+02 -4.4997162693495864e+02
 -4.4836574847112286e+02 -4.4666190454892995e+02 -4.4493377729884287e+02 -4.3067489486719938e+02 -4.3066635263493703e+02 -4.1632154557773970e+02 -4.1632205126332855e+02 -4.1632216911668968e+02 -4.0196044737455117e+02 -4.0196047262914436e+02
 -4.0196043527867835e+02 -4.1632307175161770e+02 -4.1632357683482633e+02 -4.1632369202373837e+02 -4.0196119820186544e+02 -4.0196122315046659e+02 -4.0196118478953662e+02 -4.1632130971560611e+02 -4.1632044802521278e+02 -4.0196029063289831e+02
 -4.0196018686427357e+02 -4.1632282809365967e+02 -4.1632196395258097e+02 -4.0196103875536119e+02 -4.0196093429147777e+02 -3.8758181627642239e+02 -3.8758311517589823e+02 -3.8758181294605470e+02 -3.8758311274778890e+02 -3.8758180009238930e+02
 -3.8758309922755706e+02 -3.7319857045765963e+02 -3.7319903222067626e+02 -3.7319856931527107e+02 -3.7319903105724046e+02 -3.7319856617820994e+02 -3.7319902771290236e+02 -3.8758547956209190e+02 -3.8758547696924444e+02 -3.8758546181226467e+02
 -3.7319998012573603e+02 -3.7319997885503687e+02 -3.7319997516307808e+02 -3.8758178110526347e+02 -3.8758307637036114e+02 -3.8758177116368148e+02 -3.8758306356491306e+02 -3.7319856253364372e+02 -3.7319902366685869e+02 -3.7319856086272620e+02
 -3.7319902176166067e+02 -3.8758543577053877e+02 -3.8758542110374299e+02 -3.7319997065240761e+02 -3.7319996851665832e+02 -3.4438477595710742e+02 -3.4438487610532462e+02 -3.4438477583545176e+02 -3.4438487597858580e+02 -3.4438477552992418e+02
 -3.4438487565731646e+02 -3.4438509726153154e+02 -3.4438509712452213e+02 -3.4438509677597551e+02 -3.4438477520811080e+02 -3.4438487531516466e+02 -3.4438477506977966e+02 -3.4438487516694295e+02 -3.4438509640316892e+02 -3.4438509624119934e+02
 -3.8758724153118521e+02 -3.8758723862267618e+02 -3.8758722241694102e+02 -3.7320071295984650e+02 -3.7320071160493364e+02 -3.7320070768423250e+02 -3.8758749627225001e+02 -3.8758749325228678e+02 -3.8758747673398483e+02 -3.7320072976336616e+02
 -3.7320072838049930e+02 -3.7320072438775264e+02 -3.8758719494490549e+02 -3.8758717956136354e+02 -3.7320070291007448e+02 -3.7320070065434402e+02 -3.8758744888925281e+02 -3.8758743333261305e+02 -3.7320071953520551e+02 -3.7320071724507392e+02
 -3.4438527672576237e+02 -3.4438527658099991e+02 -3.4438527621288398e+02 -3.4438527545762395e+02 -3.4438527531019650e+02 -3.4438527493547190e+02 -3.4438527581932806e+02 -3.4438527564840535e+02 -3.4438527453506441e+02 -3.4438527436123121e+02
 -3.1551077117374604e+02 -3.1551082702495779e+02 -3.1551077116209547e+02 -3.1551082701288470e+02 -3.1551077113354705e+02 -3.1551082698326348e+02 -3.1551097256097125e+02 -3.1551097254809332e+02 -3.1551097251645717e+02 -3.1551077110439178e+02
 -3.1551082695293377e+02 -3.1551077109208433e+02 -3.1551082694013547e+02 -3.1551097248401675e+02 -3.1551097247031629e+02 -2.8657690690236132e+02 -2.8657700654193292e+02 -2.8657690690124565e+02 -2.8657700654077775e+02 -2.8657690689847988e+02
 -2.8657700653794069e+02 -2.8657728735068525e+02 -2.8657728734947221e+02 -2.8657728734649049e+02 -2.8657690689559445e+02 -2.8657700653498904e+02 -2.8657690689431183e+02 -2.8657700653370637e+02 -2.8657728734339076e+02 -2.8657728734204704e+02
 -3.1551115506502572e+02 -3.1551115505150608e+02 -3.1551115501829207e+02 -3.1551131785343301e+02 -3.1551131783966923e+02 -3.1551131780585894e+02 -3.1551115498423587e+02 -3.1551115496985489e+02 -3.1551131777119872e+02 -3.1551131775656569e+02
 -2.8657769964987983e+02 -2.8657769964861370e+02 -2.8657769964550164e+02 -2.8657817389337515e+02 -2.8657817389207395e+02 -2.8657817388887599e+02 -2.8657769964227060e+02 -2.8657769964087237e+02 -2.8657817388555998e+02 -2.8657817388412718e+02
 -2.5758283243784570e+02 -2.5758304830825432e+02 -2.5758283243785473e+02 -2.5758304830825176e+02 -2.5758283243781278e+02 -2.5758304830820617e+02 -2.5758366310668850e+02 -2.5758366310668333e+02 -2.5758366310662848e+02 -2.5758283243766414e+02
 -2.5758304830806100e+02 -2.5758283243751606e+02 -2.5758304830794117e+02 -2.5758366310647330e+02 -2.5758366310635034e+02 -2.2852761783638573e+02 -2.2852808119053660e+02 -2.2852761783825528e+02 -2.2852808119239754e+02 -2.2852761784270322e+02
 -2.2852808119684755e+02 -2.2852940376220542e+02 -2.2852940376406764e+02 -2.2852940376851811e+02 -2.2852761784704285e+02 -2.2852808120119602e+02 -2.2852761784875040e+02 -2.2852808120293267e+02 -2.2852940377286626e+02 -2.2852940377460388e+02
 -2.5758458338731629e+02 -2.5758458338730372e+02 -2.5758458338722971e+02 -2.5758566924071914e+02 -2.5758566924068725e+02 -2.5758566924056561e+02 -2.5758458338705560e+02 -2.5758458338692498e+02 -2.5758566924034511e+02 -2.5758566924019607e+02
 -2.2853139166220686e+02 -2.2853139166406109e+02 -2.2853139166849090e+02 -2.2853374992728914e+02 -2.2853374992911191e+02 -2.2853374993346480e+02 -2.2853139167281876e+02 -2.2853139167454813e+02 -2.2853374993771700e+02 -2.2853374993941591e+02
 -4.5047888985310789e+02 -4.5047067207543495e+02 -4.5049459903196259e+02 -4.5048638158950848e+02 -4.5045550577156820e+02 -4.5047121861469765e+02 -4.5042259080629805e+02 -4.5043905355690498e+02 -4.5003650508621917e+02 -4.5036431494064215e+02
 -4.4841477080493564e+02 -4.4866508944965136e+02 -4.4669589008522183e+02 -4.4684885488624911e+02 -4.4495611492686868e+02 -4.4503738816914148e+02 -4.5049459903196259e+02 -4.5048638172644735e+02 -4.5047121888262211e+02 -4.5043905590716315e+02
 -4.5036537891494862e+02 -4.4868271684786299e+02 -4.4687102815522468e+02 -4.4505917838893458e+02 -4.3066706630685627e+02 -4.3067365712241468e+02 -4.3067628532221909e+02 -4.5047888985310789e+02 -4.5047067207543438e+02 -4.5049459903196259e+02
 -4.5048638158950831e+02 -4.5045550576879720e+02 -4.5047121861466729e+02 -4.5042258571355535e+02 -4.5043905344668428e+02 -4.5003430667629988e+02 -4.5036421713133751e+02 -4.4841023634910295e+02 -4.4866182958538189e+02 -4.4668908714554550e+02
 -4.4684272768360313e+02 -4.4494726681154685e+02 -4.4502877384800132e+02 -4.5049459903196259e+02 -4.5048638172644723e+02 -4.5047121888259488e+02 -4.5043905580825520e+02 -4.5036529085918568e+02 -4.4867952680807048e+02 -4.4686496831977820e+02
 -4.4505060762801952e+02 -4.3065392122248005e+02 -4.3066049828857183e+02 -4.3066313729034789e+02 -4.5049459903196259e+02 -4.5048638157458350e+02 -4.5047121858544324e+02 -4.5043905312227639e+02 -4.5036404889516541e+02 -4.4865992217331126e+02
 -4.4684126320461894e+02 -4.4502863676036492e+02 -4.5047717774777703e+02 -4.5046895991732930e+02 -4.5045379299252261e+02 -4.5042065553982263e+02 -4.4997116977073546e+02 -4.4836479523514646e+02 -4.4666045012661846e+02 -4.4493184492155189e+02
 -4.3067078726022493e+02 -4.3066224538077279e+02 -4.5049459903196259e+02 -4.5048638157458333e+02 -4.5047121858541294e+02 -4.5043905301271525e+02 -4.5036395169093282e+02 -4.4865671559869446e+02 -4.4683523445179145e+02 -4.4502015722449181e+02
 -4.5047717774777703e+02 -4.5046895991732862e+02 -4.5045379298938536e+02 -4.5042065019277845e+02 -4.4996904957218618e+02 -4.4836040895008341e+02 -4.4665385111290050e+02 -4.4492324236244986e+02 -4.3065772281042956e+02 -4.3064924120842903e+02
 -4.1631945208384229e+02 -4.1631995822644575e+02 -4.1632007642441067e+02 -4.0195872460381236e+02 -4.0195874990739509e+02 -4.0195871259859405e+02 -4.1631004332349136e+02 -4.1631054761104963e+02 -4.1631067434251594e+02 -4.0195320595623843e+02
 -4.0195323186100950e+02 -4.0195319806289496e+02 -4.1631921667292198e+02 -4.1631835452316278e+02 -4.0195856790924796e+02 -4.0195846409084930e+02 -4.1630983981413033e+02 -4.1630899426347003e+02 -4.0195305956344538e+02 -4.0195295922977010e+02
 -4.5047888985310789e+02 -4.5047067206796453e+02 -4.5049459903196259e+02 -4.5048638155154043e+02 -4.5045550573948503e+02 -4.5047121854021424e+02 -4.5042255863581926e+02 -4.5043905219605119e+02 -4.5002265769285475e+02 -4.5036339621031522e+02
 -4.4838761421384112e+02 -4.4864194600844468e+02 -4.4665725889390814e+02 -4.4680987033571444e+02 -4.4490821108642803e+02 -4.4498687696259555e+02 -4.5049459903196259e+02 -4.5048638168847901e+02 -4.5047121880815524e+02 -4.5043905461091811e+02
 -4.5036451563476788e+02 -4.4865928793346166e+02 -4.4683129400694997e+02 -4.4500753566406723e+02 -4.3062383871819452e+02 -4.3062991362927039e+02 -4.3063234259505953e+02 -4.5047717774777703e+02 -4.5046895927821436e+02 -4.5047717774777703e+02
 -4.5046895942591050e+02 -4.5045379159632301e+02 -4.5045379190346887e+02 -4.5042040129637985e+02 -4.5042043363259103e+02 -4.4987315466309934e+02 -4.4988533340263803e+02 -4.4821190566888004e+02 -4.4822812551057365e+02 -4.4648200495547570e+02
 -4.4649764337778902e+02 -4.4474293390768020e+02 -4.4475636025080098e+02 -4.5047717774777703e+02 -4.5046895942591522e+02 -4.5045379190638749e+02 -4.5042043857940450e+02 -4.4988727509212038e+02 -4.4823168940330510e+02 -4.4650216269219550e+02
 -4.4476132729120957e+02 -4.3057506355245312e+02 -4.3057685076291477e+02 -4.3057756411961918e+02 -4.5049459903196259e+02 -4.5048638153661551e+02 -4.5047121851096182e+02 -4.5043905176825376e+02 -4.5036313624951879e+02 -4.4863724774156401e+02
 -4.4680309921167122e+02 -4.4497919854902767e+02 -4.5047717774777703e+02 -4.5046895991732072e+02 -4.5045379297410614e+02 -4.5042062418202022e+02 -4.4995874465908787e+02 -4.4833973703006063e+02 -4.4662415769181450e+02 -4.4488631565870548e+02
 -4.3062752223159788e+02 -4.3061977681193355e+02 -4.5047717774777703e+02 -4.5046895942590965e+02 -4.5045379190210701e+02 -4.5042043131494688e+02 -4.4988442361218426e+02 -4.4822637683643342e+02 -4.4649523385214962e+02 -4.4475347164019075e+02
 -4.5047717774777703e+02 -4.5046895926211596e+02 -4.5045379155996744e+02 -4.5042039287475177e+02 -4.4986991270010344e+02 -4.4820703461085117e+02 -4.4647645844894106e+02 -4.4473718091768950e+02 -4.3057546350295218e+02 -4.3057292935350620e+02
 -4.1629470652221909e+02 -4.1629515908396621e+02 -4.1629527742358368e+02 -4.0194597836229491e+02 -4.0194600101780344e+02 -4.0194597154083544e+02 -4.1628049198283543e+02 -4.1628065775847745e+02 -4.1628064669544375e+02 -4.0194131192276927e+02
 -4.0194131625147656e+02 -4.0194128162251315e+02 -4.1629455109148535e+02 -4.1629380448057606e+02 -4.0194585135056496e+02 -4.0194576406241038e+02 -4.1628021887981220e+02 -4.1627985669989897e+02 -4.0194119412244578e+02 -4.0194113806437753e+02
 -3.8758598652822189e+02 -3.8758598362486629e+02 -3.8758596742363926e+02 -3.7319987815878835e+02 -3.7319987680419803e+02 -3.7319987288365559e+02 -3.8758301708081751e+02 -3.8758301450308949e+02 -3.8758299935906058e+02 -3.7319838864842382e+02
 -3.7319838737852513e+02 -3.7319838368675261e+02 -3.8758593994629513e+02 -3.8758592455726790e+02 -3.7319986810884393e+02 -3.7319986585258550e+02 -3.8758297330173548e+02 -3.8758295861865253e+02 -3.7319837917395915e+02 -3.7319837703653559e+02
 -3.4438504794638948e+02 -3.4438504780155705e+02 -3.4438504743324614e+02 -3.4438466676056095e+02 -3.4438466662326658e+02 -3.4438466627392336e+02 -3.4438504703946455e+02 -3.4438504686843714e+02 -3.4438466590013701e+02 -3.4438466573764521e+02
 -3.8757965458820485e+02 -3.8757965218927029e+02 -3.8757963869258009e+02 -3.7319687773798273e+02 -3.7319687657553766e+02 -3.7319687323014824e+02 -3.8757791113990419e+02 -3.8757790782864771e+02 -3.8757789498674231e+02 -3.7319619672880202e+02
 -3.7319619558569786e+02 -3.7319619244253420e+02 -3.8757961580361837e+02 -3.8757960296444651e+02 -3.7319686917806069e+02 -3.7319686726777985e+02 -3.8757787596442887e+02 -3.8757786598245815e+02 -3.7319618878176630e+02 -3.7319618709047421e+02
 -3.4438430253370944e+02 -3.4438430240600746e+02 -3.4438430208192653e+02 -3.4438414959213719e+02 -3.4438414946820143e+02 -3.4438414915514778e+02 -3.4438430173572721e+02 -3.4438430158446005e+02 -3.4438414881872995e+02 -3.4438414866122605e+02
 -3.1551142407851398e+02 -3.1551142406491300e+02 -3.1551142403149470e+02 -3.1551146844197734e+02 -3.1551146842878455e+02 -3.1551146839632668e+02 -3.1551142399722875e+02 -3.1551142398275749e+02 -3.1551146836294572e+02 -3.1551146834875902e+02
 -2.8657863504275099e+02 -2.8657863504140295e+02 -2.8657863503808562e+02 -2.8657901556033170e+02 -2.8657901555880250e+02 -2.8657901555499706e+02 -2.8657863503464506e+02 -2.8657863503315690e+02 -2.8657901555095742e+02 -2.8657901554912831e+02
 -3.1551147328941499e+02 -3.1551147327632805e+02 -3.1551147324385289e+02 -3.1551146990997711e+02 -3.1551146989600238e+02 -3.1551146985988731e+02 -3.1551147320953731e+02 -3.1551147319373450e+02 -3.1551146981609679e+02 -3.1551146978404086e+02
 -2.8657926432492064e+02 -2.8657926432274968e+02 -2.8657926431705664e+02 -2.8657935059956804e+02 -2.8657935059612635e+02 -2.8657935058578744e+02 -2.8657926431011845e+02 -2.8657926430581506e+02 -2.8657935056818155e+02 -2.8657935054649477e+02
 -2.5758675546661317e+02 -2.5758675546651517e+02 -2.5758675546622709e+02 -2.5758767662914119e+02 -2.5758767662881263e+02 -2.5758767662791655e+02 -2.5758675546583487e+02 -2.5758675546561108e+02 -2.5758767662680458e+02 -2.5758767662618948e+02
 -2.2853612297527275e+02 -2.2853612297700082e+02 -2.2853612298111818e+02 -2.2853814657537055e+02 -2.2853814657682548e+02 -2.2853814658023174e+02 -2.2853612298512982e+02 -2.2853612298672556e+02 -2.2853814658342071e+02 -2.2853814658458259e+02
 -2.5758829228205059e+02 -2.5758829228102206e+02 -2.5758829227809656e+02 -2.5758850849545144e+02 -2.5758850849312302e+02 -2.5758850848547792e+02 -2.5758829227393971e+02 -2.5758829227077302e+02 -2.5758850847050184e+02 -2.5758850844925581e+02
 -2.2853950486137447e+02 -2.2853950486208745e+02 -2.2853950486336379e+02 -2.2853998301093310e+02 -2.2853998301032760e+02 -2.2853998300683796e+02 -2.2853950486340574e+02 -2.2853950486195879e+02 -2.2853998299594446e+02 -2.2853998297570675e+02
 -1.9940928310735572e+02 -1.9941026391003140e+02 -1.9940928312922847e+02 -1.9941026393190603e+02 -1.9940928318196831e+02 -1.9941026398467187e+02 -1.9941306981178238e+02 -1.9941306983367252e+02 -1.9941306988647327e+02 -1.9940928323460062e+02
 -1.9941026403733650e+02 -1.9940928325630878e+02 -1.9941026405908221e+02 -1.9941306993917212e+02 -1.9941306996093303e+02 -1.7022368796126159e+02 -1.7022573223888219e+02 -1.7022368820864227e+02 -1.7022573248643621e+02 -1.7022368880587601e+02
 -1.7022573308410861e+02 -1.7023160398298526e+02 -1.7023160423088947e+02 -1.7023160482940534e+02 -1.7022368940310199e+02 -1.7022573368177942e+02 -1.7022368965041429e+02 -1.7022573392929900e+02 -1.7023160542791945e+02 -1.7023160567578952e+02
 -1.9941730518445749e+02 -1.9941730520631410e+02 -1.9941730525903270e+02 -1.9942235819096825e+02 -1.9942235821265916e+02 -1.9942235826497674e+02 -1.9941730531164976e+02 -1.9941730533337710e+02 -1.9942235831719407e+02 -1.9942235833875665e+02
 -1.7024053417781022e+02 -1.7024053442566793e+02 -1.7024053502407054e+02 -1.7025129730735046e+02 -1.7025129755381283e+02 -1.7025129814884585e+02 -1.7024053562247212e+02 -1.7024053587029604e+02 -1.7025129874387903e+02 -1.7025129899030856e+02
 -1.4096231732100875e+02 -1.4096646942444994e+02 -1.4096232011047249e+02 -1.4096647221672694e+02 -1.4096232684726562e+02 -1.4096647896033920e+02 -1.4097848306292752e+02 -1.4097848586138838e+02 -1.4097849261994182e+02 -1.4096233358751002e+02
 -1.4096648570742039e+02 -1.4096233638036117e+02 -1.4096648850312874e+02 -1.4097849938198334e+02 -1.4097850218389533e+02 -1.1160822717191195e+02 -1.1161625769994005e+02 -1.1160825858591325e+02 -1.1161628915479798e+02 -1.1160833451055123e+02
 -1.1161636517844239e+02 -1.1163980539889464e+02 -1.1163983694844144e+02 -1.1163991320120897e+02 -1.1160841055611405e+02 -1.1161644132350210e+02 -1.1160844209100679e+02 -1.1161647289976601e+02 -1.1163998957612236e+02 -1.1164002124780572e+02
 -1.4099701014550416e+02 -1.4099701294726742e+02 -1.4099701971380233e+02 -1.4101976827568222e+02 -1.4101977106658222e+02 -1.4101977780689032e+02 -1.4099702648383939e+02 -1.4099702928906757e+02 -1.4101978455070233e+02 -1.4101978734506875e+02
 -1.1167705884970084e+02 -1.1167709048182566e+02 -1.1167716693430826e+02 -1.1172446617664090e+02 -1.1172449775565211e+02 -1.1172457408005155e+02 -1.1167724350943180e+02 -1.1167727526418811e+02 -1.1172465052728624e+02 -1.1172468222912390e+02
 -8.2129474070225442e+01 -8.2143557257378149e+01 -8.2129826859120854e+01 -8.2143910614129609e+01 -8.2130681415723458e+01 -8.2144766555987829e+01 -8.2185881663379533e+01 -8.2186236346095484e+01 -8.2187095508561328e+01 -8.2131540079630568e+01
 -8.2145626624568550e+01 -8.2131896978065086e+01 -8.2145984110233456e+01 -8.2187958824536139e+01 -8.2188317662902008e+01 -6.7323158985674539e+01 -6.7327656170609870e+01 -6.7324873800647381e+01 -6.7340075126468193e+01 -6.7341793397369798e+01
 -6.7329359953111933e+01 -6.7329051240666459e+01 -6.7345979460185035e+01 -6.7333510149702889e+01 -5.2452294508654823e+01 -5.2459327628968154e+01 -5.2456845712247627e+01 -5.2463883012202729e+01 -5.2470675269687739e+01 -5.2477725476229907e+01
 -5.2476677384366710e+01 -5.2481244167907789e+01 -5.2495120215318032e+01 -6.7361823623756806e+01 -6.7392100980205043e+01 -6.7393826751561818e+01 -6.7363533377560117e+01 -6.7398031207572828e+01 -6.7367698337911676e+01 -5.2494497713211480e+01
 -5.2501563341903164e+01 -5.2529220561673313e+01 -5.2536304121554956e+01 -5.2518997152160210e+01 -5.2553782388328834e+01 -6.7333283434664537e+01 -6.7350220644831097e+01 -6.7337714183893979e+01 -6.7335053062677261e+01 -6.7351994094113948e+01
 -6.7339471860477033e+01 -5.2494577667641238e+01 -5.2499157459690053e+01 -5.2513070227016676e+01 -5.2502162398578619e+01 -5.2506747957162048e+01 -5.2520676733314126e+01 -6.7402291174824541e+01 -6.7371917602703590e+01 -6.7404072512660989e+01
 -6.7373681714910859e+01 -5.2536988693608905e+01 -5.2571819976781661e+01 -5.2544613062046864e+01 -5.2579463862336880e+01 -8.2256066343101210e+01 -8.2256422450272936e+01 -8.2257285064027627e+01 -8.2351448846751083e+01 -8.2351805318278835e+01
 -8.2352668820598666e+01 -8.2258151848351176e+01 -8.2258512128248469e+01 -8.2353536505434406e+01 -8.2353897161698725e+01 -6.7432488379560013e+01 -6.7482240314247818e+01 -6.7483974773577984e+01 -6.7434206351538492e+01 -6.7488200356030148e+01
 -6.7438391347374974e+01 -5.2576160122840989e+01 -5.2583261435268120e+01 -5.2636763584218329e+01 -5.2643885562518371e+01 -5.2600783271069162e+01 -5.2661457971654990e+01 -6.7542722657369325e+01 -6.7612814900658563e+01 -6.7614556282085829e+01
 -6.7544449107865134e+01 -6.7618798740383340e+01 -6.7548654717045167e+01 -5.2712791560160056e+01 -5.2719934817455496e+01 -5.2805894627845234e+01 -5.2813059757132216e+01 -5.2737559352338963e+01 -5.2830738149484347e+01 -6.7492481657052949e+01
 -6.7442630915504779e+01 -6.7494271890665274e+01 -6.7444403513536940e+01 -5.2618865385321016e+01 -5.2679591564468154e+01 -5.2626527982652554e+01 -5.2687275739673240e+01 -6.7623097135945272e+01 -6.7552915093411784e+01 -6.7624894511941662e+01
 -6.7554696365818572e+01 -5.2755746048492789e+01 -5.2848980066103913e+01 -5.2763452491240301e+01 -5.2856709761024582e+01 -3.7473902038988179e+01 -3.7477770037300928e+01 -3.7501218449655823e+01 -3.7505108923517639e+01 -3.7490048815082680e+01
 -3.7517444417186411e+01 -3.7570713747303799e+01 -3.7574679185197390e+01 -3.7587182921592834e+01 -2.2229057857144721e+01 -2.2228911298736673e+01 -2.2253394607123262e+01 -2.2228994683994046e+01 -2.2325206578466208e+01 -2.2253268633299630e+01
 -2.2325285439488280e+01 -2.2253334533853835e+01 -2.2325312182230395e+01 -2.2230578152449073e+01 -2.2254922264349304e+01 -2.2233413643157686e+01 -2.2329876769390811e+01 -2.2257789969191041e+01 -2.2326913761735742e+01 -2.2442019268141671e+01
 -2.2594198733969449e+01 -2.2441918608534692e+01 -2.2594792374674750e+01 -2.2442159143393233e+01 -2.2594322375410890e+01 -2.2443900690612267e+01 -2.2600296151817773e+01 -2.2447090057526239e+01 -2.2596739003984158e+01 -3.7512191752028976e+01
 -3.7539655522725916e+01 -3.7545951412117120e+01 -3.7573483126583191e+01 -3.7609578443433904e+01 -3.7643580295375521e+01 -2.2238975111723267e+01 -2.2263373098702925e+01 -2.2246467173459315e+01 -2.2343170113782964e+01 -2.2270903596195009e+01
 -2.2335535858957421e+01 -2.2257165823117198e+01 -2.2281624009266604e+01 -2.2270196070766833e+01 -2.2367123256491869e+01 -2.2294691360291761e+01 -2.2353960915618938e+01 -2.2452871471744178e+01 -2.2614381758843756e+01 -2.2460711951180397e+01
 -2.2606241194741333e+01 -2.2471595990915720e+01 -2.2638963702935236e+01 -2.2484941091711487e+01 -2.2625364859541758e+01 -3.7645642373744423e+01 -3.7649706611702698e+01 -3.7662417634260109e+01 -3.7678411715355580e+01 -3.7682521765213259e+01
 -3.7695327814709174e+01 -2.2764630658090784e+01 -2.2923911509033701e+01 -2.2764470242241089e+01 -2.2925535647432575e+01 -2.2765596699622396e+01 -2.2924072416305044e+01 -2.2767810490644507e+01 -2.2932552006760780e+01 -2.2771868400093485e+01
 -2.2927985429692868e+01 -2.3039105292500526e+01 -2.3081620211198857e+01 -2.3038959393176704e+01 -2.3083728352029599e+01 -2.3040939772199462e+01 -2.3081747175182990e+01 -2.3043550935351870e+01 -2.3091485361783004e+01 -2.3048500677341988e+01
 -2.3086384329441096e+01 -3.7685023810534155e+01 -3.7719213689360068e+01 -3.7718028072377393e+01 -3.7752299618469110e+01 -2.2777982672107868e+01 -2.2947717046996743e+01 -2.2786508877224129e+01 -2.2938802718082879e+01 -2.2797563873606030e+01
 -2.2973044721632125e+01 -2.2811483368541552e+01 -2.2958806219196209e+01 -2.3054839718581984e+01 -2.3107168161239812e+01 -2.3064047087093726e+01 -2.3097842748181577e+01 -2.3075147698573559e+01 -2.3132836660945223e+01 -2.3089627713048792e+01
 -2.3118258426715546e+01 -1.4303115893346266e+01 -1.4339246846160723e+01 -1.4306799179949982e+01 -1.4343409909570656e+01 -1.4297078926286762e+01 -1.4332836852367524e+01 -1.4461718855520539e+01 -1.4457158680197614e+01 -1.4450336484906295e+01
 -6.1175541594867457e+00 -6.0938276712323951e+00 -6.1363494702271542e+00 -6.1032499240740004e+00 -6.0695584956336921e+00 -6.0749477192510684e+00 -6.2528418364916680e+00 -6.2146382765882526e+00 -6.1823585603111706e+00 -1.4292498935883197e+01
 -1.4328104675566470e+01 -1.4290654244654192e+01 -1.4326230749232517e+01 -1.4445441101922391e+01 -1.4443587493529567e+01 -6.0549192474788089e+00 -6.0592179804033481e+00 -6.0477774620490692e+00 -6.0518520976323984e+00 -6.1650406504526041e+00
 -6.1572290903294959e+00 -1.4669995920153969e+01 -1.4674567136748159e+01 -1.4663238208185531e+01 -1.4990939201501492e+01 -1.4987089410087387e+01 -1.4981392595430572e+01 -6.5259769062916790e+00 -6.4859801962712611e+00 -6.4513577958264721e+00
 -7.0442232464102368e+00 -7.0095662315364047e+00 -6.9781387804488642e+00 -1.4658539362142827e+01 -1.4656959050385119e+01 -1.4977615608133926e+01 -1.4976758440896045e+01 -6.4330785958997927e+00 -6.4251113942535811e+00 -6.9614211694443764e+00
 -6.9543907032219696e+00 -4.0758709771968631e+00 -4.0295310801430073e+00 -4.0643622342645802e+00 -3.9770294340803658e+00 -2.0645050242204137e+00 -1.9888292034908883e+00 -2.0131628198451468e+00 -1.8102402592078917e+00 -1.8209462496317352e-01
 -9.1856405583683048e-02 -1.0405518041439089e-01 3.2002911664523276e-01 4.2206046760301807e-01 4.2229166602565138e-01 4.2226301374048042e-01 4.3832608987011062e-01 -3.9993872546686609e+00 -3.9383600249539854e+00 -1.9572011211701259e+00
 -1.7671158361281794e+00 -7.0554873279274205e-02 3.3629651941585081e-01 4.2234166660817574e-01 4.3834978555470799e-01 -4.1499394426917231e+00 -4.0498406849827937e+00 -2.0610848015247267e+00 -1.8353171334440586e+00 -1.1949166682461822e-01
 3.2778950507196797e-01 4.2222680488834741e-01 4.3833988927189388e-01 -4.0045286106146269e+00 -1.7837720111020945e+00 3.4653401029601311e-01 4.3902004524844279e-01 4.5545460682024258e-01 4.5545881923957610e-01 4.5545883486118521e-01