DF-ISE text

Info {
  version = 1.0
  type    = dataset
  dimension   = 3
  nb_vertices = 5293
  nb_edges    = 23303
  nb_faces    = 30690
  nb_elements = 12980
  nb_regions  = 3
  datasets    = [ "ElectrostaticPotential" "ContactExternalVoltage" "ContactCurrentFlux" "ContactCharge" "eQuasiFermiPotential" "hQuasiFermiPotential" "QuasiFermiPotential" "LatticeTemperature" ]
  functions   = [ ElectrostaticPotential ContactExternalVoltage ContactCurrentFlux ContactCharge eQuasiFermiPotential hQuasiFermiPotential QuasiFermiPotential LatticeTemperature ]
}

Data {

  Dataset ("ElectrostaticPotential") {
    function  = ElectrostaticPotential
    type      = scalar
    dimension = 1
    location  = vertex
    validity  = [ "substrate" ]
    Values (5293) {
 -1.5037888985310795e+02 -1.5037067152405788e+02 -1.5037888985310795e+02 -1.5037888985310795e+02 -1.5037067207185279e+02 -1.5037067166100246e+02 -1.5039459903196268e+02 -1.5038638155161524e+02 -1.5035550510314150e+02 -1.5035550617492800e+02
 -1.5035550537103381e+02 -1.5037121855094031e+02 -1.5032333359268731e+02 -1.5032333895564275e+02 -1.5032333486260097e+02 -1.5033907824113194e+02 -1.5026448102672572e+02 -1.5026490496117265e+02 -1.5026455554356085e+02 -1.5028650902679357e+02
 -1.4976065941318183e+02 -1.4977298605843515e+02 -1.4976261668496079e+02 -1.4982810283338543e+02 -1.4919029561841694e+02 -1.4920842680568407e+02 -1.4919281192106942e+02 -1.4924229265480062e+02 -1.4861719360251018e+02 -1.4863800313480056e+02
 -1.4861971107231631e+02 -1.4865551463220058e+02 -1.5037888985310795e+02 -1.5037067166100607e+02 -1.5039459903196268e+02 -1.5038638168855331e+02 -1.5035550537106408e+02 -1.5037121881853412e+02 -1.5032333489310187e+02 -1.5033907940868679e+02
 -1.5026456903809938e+02 -1.5028656600624251e+02 -1.4976308837348043e+02 -1.4983186559734662e+02 -1.4919361187519237e+02 -1.4924710203683460e+02 -1.4862071904761672e+02 -1.4866025971142312e+02 -1.4398864510790142e+02 -1.4399569012935342e+02
 -1.4398902861081072e+02 -1.4399707061534812e+02 -1.4398923231496170e+02 -1.4399770738782931e+02 -1.5037888985310795e+02 -1.5037067207185638e+02 -1.5039459903196268e+02 -1.5038638158585127e+02 -1.5035550617500968e+02 -1.5037121861785121e+02
 -1.5032333908071456e+02 -1.5033907855737422e+02 -1.5026496064872052e+02 -1.5028654487055513e+02 -1.4977497403954453e+02 -1.4983096742785992e+02 -1.4921210060220929e+02 -1.4924708775209871e+02 -1.4864304177060231e+02 -1.4866165265758156e+02
 -1.5039459903196268e+02 -1.5038638172278976e+02 -1.5037121888544718e+02 -1.5033907972734596e+02 -1.5028660398972997e+02 -1.4983493128876015e+02 -1.4925223734769460e+02 -1.4866682301313460e+02 -1.4400003084778282e+02 -1.4400156501848755e+02
 -1.4400228430951481e+02 -1.5037888985310795e+02 -1.5037067166100209e+02 -1.5039459903196268e+02 -1.5038638153669038e+02 -1.5035550537102853e+02 -1.5037121852177211e+02 -1.5032333485560821e+02 -1.5033907811209519e+02 -1.5026455243681539e+02
 -1.5028650141913243e+02 -1.4976250780522241e+02 -1.4982759500846231e+02 -1.4919261467758494e+02 -1.4924154698941007e+02 -1.4861944606127565e+02 -1.4865466361141100e+02 -1.5037888985310795e+02 -1.5037067150913222e+02 -1.5037717774777707e+02
 -1.5036895992183364e+02 -1.5035550507393728e+02 -1.5035379357077343e+02 -1.5032333344781989e+02 -1.5032162062547445e+02 -1.5026447012539549e+02 -1.5026213119115008e+02 -1.4976036257621851e+02 -1.4976768273198587e+02 -1.4918984580362411e+02
 -1.4920469715753575e+02 -1.4861666173329439e+02 -1.4863554400458398e+02 -1.4398888487691485e+02 -1.4399680614074876e+02 -1.4398842411111079e+02 -1.4399523892972522e+02 -1.5039459903196268e+02 -1.5038638157092635e+02 -1.5037121858868261e+02
 -1.5033907842783324e+02 -1.5028653681684335e+02 -1.4983041851124597e+02 -1.4924626789096706e+02 -1.4866070284593420e+02 -1.5037717774777707e+02 -1.5036895991378927e+02 -1.5035379355512777e+02 -1.5032162069925704e+02 -1.5026218846160583e+02
 -1.4976954822138717e+02 -1.4920818873267078e+02 -1.4864037298174367e+02 -1.4400125791736957e+02 -1.4399951196739582e+02 -1.3932808535311452e+02 -1.3933018434502199e+02 -1.3932812814135835e+02 -1.3933029586020555e+02 -1.3932814681178726e+02
 -1.3933035210027055e+02 -1.3464813210703912e+02 -1.3464881314974943e+02 -1.3464813550400993e+02 -1.3464882130151454e+02 -1.3464813432718904e+02 -1.3464882271429238e+02 -1.3933240342489441e+02 -1.3933253128172333e+02 -1.3933259636602921e+02
 -1.3464983489785217e+02 -1.3464984448888814e+02 -1.3464984631591591e+02 -1.3932808128303898e+02 -1.3933022882035905e+02 -1.3932801753302689e+02 -1.3933008475542655e+02 -1.3464812229915427e+02 -1.3464880482858652e+02 -1.3464811331031896e+02
 -1.3464878955530418e+02 -1.3933245296883280e+02 -1.3933228728447202e+02 -1.3464982543850974e+02 -1.3464980761337196e+02 -1.5037888985310795e+02 -1.5037067207185638e+02 -1.5039459903196268e+02 -1.5038638158585135e+02 -1.5035550617502372e+02
 -1.5037121861785300e+02 -1.5032333910645190e+02 -1.5033907856286990e+02 -1.5026497213090644e+02 -1.5028654976305540e+02 -1.4977538532793056e+02 -1.4983140487979369e+02 -1.4921288907365667e+02 -1.4924792634390661e+02 -1.4864416618283806e+02
 -1.4866284301835537e+02 -1.5039459903196268e+02 -1.5038638172278982e+02 -1.5037121888544900e+02 -1.5033907973298523e+02 -1.5028660901173598e+02 -1.4983538190241984e+02 -1.4925310052778735e+02 -1.4866804687260660e+02 -1.4400186150675302e+02
 -1.4400341184434041e+02 -1.4400414001045195e+02 -1.5037888985310795e+02 -1.5037067207185638e+02 -1.5039459903196268e+02 -1.5038638158585135e+02 -1.5035550617502619e+02 -1.5037121861785326e+02 -1.5032333911103112e+02 -1.5033907856379696e+02
 -1.5026497417390311e+02 -1.5028655058912614e+02 -1.4977545855644996e+02 -1.4983147878179284e+02 -1.4921303076245320e+02 -1.4924807029648377e+02 -1.4864437105795452e+02 -1.4866305140121148e+02 -1.5039459903196268e+02 -1.5038638172278982e+02
 -1.5037121888544928e+02 -1.5033907973391808e+02 -1.5028660984323321e+02 -1.4983545655690736e+02 -1.4925324594134622e+02 -1.4866825730473707e+02 -1.4400230554899443e+02 -1.4400385718467535e+02 -1.4400458589868606e+02 -1.5039459903196268e+02
 -1.5038638157092640e+02 -1.5037121858868437e+02 -1.5033907843327162e+02 -1.5028654165793651e+02 -1.4983085113395038e+02 -1.4924709726110285e+02 -1.4866188029750998e+02 -1.5037717774777707e+02 -1.5036895991378924e+02 -1.5035379355514553e+02
 -1.5032162072978701e+02 -1.5026220109328031e+02 -1.4976995166824048e+02 -1.4920896167399735e+02 -1.4864147577158565e+02 -1.4400309475263663e+02 -1.4400132788170993e+02 -1.5039459903196268e+02 -1.5038638157092640e+02 -1.5037121858868460e+02
 -1.5033907843419269e+02 -1.5028654247860985e+02 -1.4983092451230260e+02 -1.4924724019850046e+02 -1.4866208723535800e+02 -1.5037717774777707e+02 -1.5036895991378924e+02 -1.5035379355514877e+02 -1.5032162073527545e+02 -1.5026220336397327e+02
 -1.4977002423751685e+02 -1.4920910189218097e+02 -1.4864167848223497e+02 -1.4400353840800523e+02 -1.4400176950118308e+02 -1.3933368755280455e+02 -1.3933381764807882e+02 -1.3933388346340257e+02 -1.3465055362763619e+02 -1.3465056340823747e+02
 -1.3465056507460420e+02 -1.3933403768826520e+02 -1.3933416797650034e+02 -1.3933423372657043e+02 -1.3465075891668545e+02 -1.3465076870151267e+02 -1.3465077029204701e+02 -1.3933373564746165e+02 -1.3933356612710941e+02 -1.3465054328082834e+02
 -1.3465052481342136e+02 -1.3933408520491167e+02 -1.3933391516632042e+02 -1.3465074831160598e+02 -1.3465072973056843e+02 -1.2995193639067801e+02 -1.2995218282587095e+02 -1.2995193635777756e+02 -1.2995218309995391e+02 -1.2995193526448611e+02
 -1.2995218209907452e+02 -1.2524039485046400e+02 -1.2524048690197111e+02 -1.2524039475214006e+02 -1.2524048681267122e+02 -1.2524039443461872e+02 -1.2524048648133603e+02 -1.2995263945175515e+02 -1.2995263981117046e+02 -1.2995263871782885e+02
 -1.2524068230199548e+02 -1.2524068220786337e+02 -1.2524068184377185e+02 -1.2995193289160821e+02 -1.2995217909872378e+02 -1.2995193147968334e+02 -1.2995217714856648e+02 -1.2524039401044934e+02 -1.2524048599962252e+02 -1.2524039380106288e+02
 -1.2524048575128306e+02 -1.2995263525882049e+02 -1.2995263299191802e+02 -1.2524068130177658e+02 -1.2524068101958217e+02 -1.1577220214270652e+02 -1.1577222747377624e+02 -1.1577220213014282e+02 -1.1577222746088169e+02 -1.1577220209728688e+02
 -1.1577222742644103e+02 -1.1577228815081273e+02 -1.1577228813694791e+02 -1.1577228809958132e+02 -1.1577220206094303e+02 -1.1577222738747699e+02 -1.1577220204480260e+02 -1.1577222736992039e+02 -1.1577228805690072e+02 -1.1577228803756037e+02
 -1.2995300168931391e+02 -1.2995300204247636e+02 -1.2995300085898359e+02 -1.2524085184628345e+02 -1.2524085174510746e+02 -1.2524085135758273e+02 -1.2995310578962054e+02 -1.2995310613548807e+02 -1.2995310492218135e+02 -1.2524090232477461e+02
 -1.2524090222094135e+02 -1.2524090182580325e+02 -1.2995299721236697e+02 -1.2995299483610998e+02 -1.2524085078348615e+02 -1.2524085048530108e+02 -1.2995310122941370e+02 -1.2995309882891976e+02 -1.2524090124244977e+02 -1.2524090093992989e+02
 -1.1577235210780341e+02 -1.1577235209313723e+02 -1.1577235205362602e+02 -1.1577239019270596e+02 -1.1577239017774814e+02 -1.1577239013748871e+02 -1.1577235200851139e+02 -1.1577235198807531e+02 -1.1577239009156445e+02 -1.1577239007077470e+02
 -1.0624439423197632e+02 -1.0624441411792905e+02 -1.0624439423065398e+02 -1.0624441411656092e+02 -1.0624439422735274e+02 -1.0624441411313914e+02 -1.0624446836706984e+02 -1.0624446836561387e+02 -1.0624446836196512e+02 -1.0624439422386891e+02
 -1.0624441410951374e+02 -1.0624439422234487e+02 -1.0624441410792710e+02 -1.0624446835809142e+02 -1.0624446835639581e+02 -9.6657014259296673e+01 -9.6657050336524819e+01 -9.6657014259108649e+01 -9.6657050336329718e+01 -9.6657014258618815e+01
 -9.6657050335829638e+01 -9.6657152595828308e+01 -9.6657152595625391e+01 -9.6657152595107249e+01 -9.6657014258045137e+01 -9.6657050335248684e+01 -9.6657014257752422e+01 -9.6657050334955997e+01 -9.6657152594508460e+01 -9.6657152594208767e+01
 -1.0624454337058522e+02 -1.0624454336905664e+02 -1.0624454336522631e+02 -1.0624462270421611e+02 -1.0624462270265207e+02 -1.0624462269873439e+02 -1.0624454336116213e+02 -1.0624454335938512e+02 -1.0624462269458053e+02 -1.0624462269276580e+02
 -9.6657304345234508e+01 -9.6657304345023533e+01 -9.6657304344485894e+01 -9.6657481393072544e+01 -9.6657481392849192e+01 -9.6657481392281511e+01 -9.6657304343867764e+01 -9.6657304343560227e+01 -9.6657481391633070e+01 -9.6657481391313084e+01
 -8.7009932598214121e+01 -8.7010008756536436e+01 -8.7009932598186637e+01 -8.7010008756505300e+01 -8.7009932598085086e+01 -8.7010008756401263e+01 -8.7010225794138137e+01 -8.7010225794105423e+01 -8.7010225793998657e+01 -8.7009932597897730e+01
 -8.7010008756214717e+01 -8.7009932597760255e+01 -8.7010008756080367e+01 -8.7010225793810221e+01 -8.7010225793675644e+01 -7.7302828535105945e+01 -7.7302990524178838e+01 -7.7302828535709736e+01 -7.7302990524779617e+01 -7.7302828537130722e+01
 -7.7302990526198855e+01 -7.7303452958665716e+01 -7.7303452959265343e+01 -7.7303452960682861e+01 -7.7302828538460659e+01 -7.7302990527530113e+01 -7.7302828538945420e+01 -7.7302990528017844e+01 -7.7303452962013253e+01 -7.7303452962501112e+01
 -8.7010551056384827e+01 -8.7010551056349129e+01 -8.7010551056235400e+01 -8.7010935427352422e+01 -8.7010935427306052e+01 -8.7010935427166345e+01 -8.7010551056040413e+01 -8.7010551055903392e+01 -8.7010935426945281e+01 -8.7010935426797644e+01
 -7.7304148197553332e+01 -7.7304148198149591e+01 -7.7304148199559222e+01 -7.7304973238155554e+01 -7.7304973238738597e+01 -7.7304973240116155e+01 -7.7304148200882167e+01 -7.7304148201367269e+01 -7.7304973241406955e+01 -7.7304973241878969e+01
 -1.5037888985310795e+02 -1.5037067207185638e+02 -1.5039459903196268e+02 -1.5038638158585135e+02 -1.5035550617502292e+02 -1.5037121861785295e+02 -1.5032333910504133e+02 -1.5033907856259003e+02 -1.5026497150158190e+02 -1.5028654951366198e+02
 -1.4977536276384456e+02 -1.4983138256551922e+02 -1.4921284509160071e+02 -1.4924788252015023e+02 -1.4864410179791429e+02 -1.4866277872401170e+02 -1.5039459903196268e+02 -1.5038638172278982e+02 -1.5037121888544894e+02 -1.5033907973270669e+02
 -1.5028660876345401e+02 -1.4983535960724382e+02 -1.4925305672890488e+02 -1.4866798260369302e+02 -1.4400168566366736e+02 -1.4400323600966468e+02 -1.4400396417844684e+02 -1.5037888985310795e+02 -1.5037067207185638e+02 -1.5039459903196268e+02
 -1.5038638158585127e+02 -1.5035550617500684e+02 -1.5037121861785090e+02 -1.5032333907569071e+02 -1.5033907855637852e+02 -1.5026495840841997e+02 -1.5028654398383597e+02 -1.4977489383489760e+02 -1.4983088813888742e+02 -1.4921194640519855e+02
 -1.4924693414906909e+02 -1.4864282024986554e+02 -1.4866143148620580e+02 -1.5039459903196268e+02 -1.5038638172278974e+02 -1.5037121888544689e+02 -1.5033907972635512e+02 -1.5028660310701932e+02 -1.4983485207290263e+02 -1.4925208384142883e+02
 -1.4866660194204351e+02 -1.4399957611868928e+02 -1.4400111032210631e+02 -1.4400182962487375e+02 -1.5039459903196268e+02 -1.5038638157092640e+02 -1.5037121858868426e+02 -1.5033907843299147e+02 -1.5028654140831682e+02 -1.4983082881209742e+02
 -1.4924705342542265e+02 -1.4866181598861360e+02 -1.5037717774777707e+02 -1.5036895991378924e+02 -1.5035379355514453e+02 -1.5032162072807654e+02 -1.5026220038559828e+02 -1.4976992904435457e+02 -1.4920891764574125e+02 -1.4864141135102219e+02
 -1.4400291891103021e+02 -1.4400115202772795e+02 -1.5039459903196268e+02 -1.5038638157092635e+02 -1.5037121858868230e+02 -1.5033907842683655e+02 -1.5028653592930712e+02 -1.4983033919411741e+02 -1.4924611424364423e+02 -1.4866048162065073e+02
 -1.5037717774777707e+02 -1.5036895991378924e+02 -1.5035379355512404e+02 -1.5032162069316348e+02 -1.5026218594173372e+02 -1.4976946779737568e+02 -1.4920803436356445e+02 -1.4864015132723591e+02 -1.4400080319840399e+02 -1.4399905720217097e+02
 -1.3933350322722717e+02 -1.3933363332308625e+02 -1.3933369913805390e+02 -1.3465040707353080e+02 -1.3465041685407161e+02 -1.3465041852010145e+02 -1.3933198851512267e+02 -1.3933211637438450e+02 -1.3933218145811134e+02 -1.3464953045271633e+02
 -1.3464954004362141e+02 -1.3464954186965690e+02 -1.3933355132002146e+02 -1.3933338179798980e+02 -1.3465039672576310e+02 -1.3465037825803645e+02 -1.3933203805411782e+02 -1.3933187236394460e+02 -1.3464952099044854e+02 -1.3464950316423037e+02
 -1.5037888985310795e+02 -1.5037067206438957e+02 -1.5039459903196268e+02 -1.5038638154788373e+02 -1.5035550616031594e+02 -1.5037121854364625e+02 -1.5032333886757459e+02 -1.5033907820546401e+02 -1.5026489254789021e+02 -1.5028650410877131e+02
 -1.4977258666940403e+02 -1.4982770816401865e+02 -1.4920773084922601e+02 -1.4924159953606426e+02 -1.4863707878316512e+02 -1.4865459176381242e+02 -1.5039459903196268e+02 -1.5038638168482186e+02 -1.5037121881124028e+02 -1.5033907937304841e+02
 -1.5028656110956535e+02 -1.4983147126790931e+02 -1.4924640933745016e+02 -1.4865933724735913e+02 -1.4399468322502702e+02 -1.4399606382727544e+02 -1.4399670064480065e+02 -1.5037717774777707e+02 -1.5036895927470661e+02 -1.5037717774777707e+02
 -1.5036895942239863e+02 -1.5035379230433492e+02 -1.5035379259330881e+02 -1.5032161414170241e+02 -1.5032161553433144e+02 -1.5026160569106673e+02 -1.5026168976774076e+02 -1.4975411689773739e+02 -1.4975608025308259e+02 -1.4918467217790908e+02
 -1.4918719217954458e+02 -1.4861245302837708e+02 -1.4861497246381120e+02 -1.5037717774777707e+02 -1.5036895942240267e+02 -1.5035379259334607e+02 -1.5032161557148268e+02 -1.5026170501712352e+02 -1.4975655339764035e+02 -1.4918799324193427e+02
 -1.4861598121875778e+02 -1.4398671180089525e+02 -1.4398709545986515e+02 -1.4398729923645180e+02 -1.5039459903196268e+02 -1.5038638153295886e+02 -1.5037121851447802e+02 -1.5033907807642183e+02 -1.5028649649712042e+02 -1.4982720022889046e+02
 -1.4924085371093943e+02 -1.4865374056150000e+02 -1.5037717774777707e+02 -1.5036895991378469e+02 -1.5035379355500922e+02 -1.5032162052677464e+02 -1.5026211723541110e+02 -1.4976728226527976e+02 -1.4920400045376732e+02 -1.4863461915429161e+02
 -1.4399579929473020e+02 -1.4399423192857034e+02 -1.5037717774777707e+02 -1.5036895942239812e+02 -1.5035379259330205e+02 -1.5032161552580948e+02 -1.5026168625615216e+02 -1.4975597099821536e+02 -1.4918699460181978e+02 -1.4861470716166772e+02
 -1.5037717774777707e+02 -1.5036895925860949e+02 -1.5035379227283147e+02 -1.5032161398205869e+02 -1.5026159337901845e+02 -1.4975381900535226e+02 -1.4918422157946381e+02 -1.4861192059103831e+02 -1.4398695164436336e+02 -1.4398649067656581e+02
 -1.3932946818642304e+02 -1.3932957970970151e+02 -1.3932963594996522e+02 -1.3464835035612285e+02 -1.3464835850765533e+02 -1.3464835991795209e+02 -1.3932710526266814e+02 -1.3932714806139671e+02 -1.3932716673124509e+02 -1.3464757728882810e+02
 -1.3464758068495277e+02 -1.3464757950294236e+02 -1.3932951265249332e+02 -1.3932936857105884e+02 -1.3464834202733968e+02 -1.3464832675082852e+02 -1.3932710117531227e+02 -1.3932703740082738e+02 -1.3464756746470368e+02 -1.3464755846837045e+02
 -1.2995290424411377e+02 -1.2995290459720277e+02 -1.2995290341350818e+02 -1.2524080214205254e+02 -1.2524080204081820e+02 -1.2524080165314659e+02 -1.2995244592990184e+02 -1.2995244628906926e+02 -1.2995244519502535e+02 -1.2524058585676741e+02
 -1.2524058576241475e+02 -1.2524058539774656e+02 -1.2995289976665615e+02 -1.2995289739028911e+02 -1.2524080107889314e+02 -1.2524080078063864e+02 -1.2995244173515212e+02 -1.2995243946781241e+02 -1.2524058485508667e+02 -1.2524058457256318e+02
 -1.1577238899727963e+02 -1.1577238898256101e+02 -1.1577238894291888e+02 -1.1577235558067841e+02 -1.1577235556660571e+02 -1.1577235552869766e+02 -1.1577238889766555e+02 -1.1577238887716828e+02 -1.1577235548539326e+02 -1.1577235546574151e+02
 -1.2995190707613938e+02 -1.2995190734950683e+02 -1.2995190634649023e+02 -1.2524035381035935e+02 -1.2524035372036630e+02 -1.2524035338708721e+02 -1.2995162280551966e+02 -1.2995162277107943e+02 -1.2995162167287859e+02 -1.2524024684300903e+02
 -1.2524024674315800e+02 -1.2524024642092145e+02 -1.2995190334321177e+02 -1.2995190139130523e+02 -1.2524035290280275e+02 -1.2524035265290631e+02 -1.2995161929221280e+02 -1.2995161787450408e+02 -1.2524024598929724e+02 -1.2524024577418848e+02
 -1.1577231452623035e+02 -1.1577231451266046e+02 -1.1577231447632549e+02 -1.1577229584172197e+02 -1.1577229582764537e+02 -1.1577229579009040e+02 -1.1577231443483716e+02 -1.1577231441571948e+02 -1.1577229574618293e+02 -1.1577229572402669e+02
 -1.0624469225188209e+02 -1.0624469225030185e+02 -1.0624469224634254e+02 -1.0624474335038228e+02 -1.0624474334872026e+02 -1.0624474334453446e+02 -1.0624469224214171e+02 -1.0624469224030449e+02 -1.0624474334004088e+02 -1.0624474333803414e+02
 -9.6657656337216238e+01 -9.6657656336953735e+01 -9.6657656336287488e+01 -9.6657802977361229e+01 -9.6657802976952766e+01 -9.6657802975898662e+01 -9.6657656335533218e+01 -9.6657656335165768e+01 -9.6657802974680621e+01 -9.6657802974068687e+01
 -1.0624477324382867e+02 -1.0624477324178781e+02 -1.0624477323647420e+02 -1.0624478287083869e+02 -1.0624478286800083e+02 -1.0624478285995613e+02 -1.0624477323030743e+02 -1.0624477322711560e+02 -1.0624478284867629e+02 -1.0624478284067533e+02
 -9.6657900079444261e+01 -9.6657900078577200e+01 -9.6657900076183509e+01 -9.6657934002498038e+01 -9.6657934000790462e+01 -9.6657933995510689e+01 -9.6657900073040238e+01 -9.6657900071094843e+01 -9.6657933986899096e+01 -9.6657933979615649e+01
 -8.7011320570505902e+01 -8.7011320570418036e+01 -8.7011320570174178e+01 -8.7011647693565720e+01 -8.7011647693326339e+01 -8.7011647692680967e+01 -8.7011320569841700e+01 -8.7011320569644326e+01 -8.7011647691870252e+01 -8.7011647691421032e+01
 -7.7305803750824396e+01 -7.7305803751359960e+01 -7.7305803752618914e+01 -7.7306512204718587e+01 -7.7306512205093412e+01 -7.7306512205928584e+01 -7.7305803753783948e+01 -7.7305803754200383e+01 -7.7306512206592728e+01 -7.7306512206746802e+01
 -8.7011866585844515e+01 -8.7011866585140055e+01 -8.7011866583136012e+01 -8.7011943508787695e+01 -8.7011943507235259e+01 -8.7011943502296134e+01 -8.7011866580362849e+01 -8.7011866578525726e+01 -8.7011943493823352e+01 -8.7011943486125546e+01
 -7.7306987859240095e+01 -7.7306987859140605e+01 -7.7306987858592322e+01 -7.7307155324030973e+01 -7.7307155323076117e+01 -7.7307155319546396e+01 -7.7306987857253006e+01 -7.7306987855962248e+01 -7.7307155312274887e+01 -7.7307155304540927e+01
 -6.7535015344246048e+01 -6.7535357295180603e+01 -6.7535015351864601e+01 -6.7535357302797735e+01 -6.7535015370220123e+01 -6.7535357321154578e+01 -6.7536335690645430e+01 -6.7536335698263457e+01 -6.7536335716623398e+01 -6.7535015388480247e+01
 -6.7535357339418852e+01 -6.7535015395971087e+01 -6.7535357346913528e+01 -6.7536335734891608e+01 -6.7536335742388417e+01 -5.7705053046940940e+01 -5.7705764789234884e+01 -5.7705053133680003e+01 -5.7705764875993339e+01 -5.7705053343077317e+01
 -5.7705765085441548e+01 -5.7707809600069837e+01 -5.7707809686879024e+01 -5.7707809896450620e+01 -5.7705053552415343e+01 -5.7705765294833050e+01 -5.7705053639057923e+01 -5.7705765381499617e+01 -5.7707810105966367e+01 -5.7707810192684853e+01
 -6.7537812917038323e+01 -6.7537812924648847e+01 -6.7537812942990968e+01 -6.7539575946317342e+01 -6.7539575953889241e+01 -6.7539575972137939e+01 -6.7537812961241784e+01 -6.7537812968731728e+01 -6.7539575990295347e+01 -6.7539575997746880e+01
 -5.7710920926397328e+01 -5.7710921013213024e+01 -5.7710921222800607e+01 -5.7714673245766392e+01 -5.7714673332338613e+01 -5.7714673541338286e+01 -5.7710921432332860e+01 -5.7710921519058566e+01 -5.7714673750282657e+01 -5.7714673836765250e+01
 -4.7809980721292234e+01 -4.7811423918620143e+01 -4.7809981700184977e+01 -4.7811424897811165e+01 -4.7809984064426224e+01 -4.7811427262775887e+01 -4.7815601355424029e+01 -4.7815602335490780e+01 -4.7815604702570795e+01 -4.7809986430026285e+01
 -4.7811429629101539e+01 -4.7809987410235479e+01 -4.7811430609612728e+01 -4.7815607071012778e+01 -4.7815608052401082e+01 -3.7843918119035202e+01 -3.7846701382693098e+01 -3.7843929146735597e+01 -3.7846712413885712e+01 -3.7843955804520348e+01
 -3.7846739080098850e+01 -3.7854868059008261e+01 -3.7854879102311997e+01 -3.7854905797770726e+01 -3.7843982512033051e+01 -3.7846765796027810e+01 -3.7843993589437240e+01 -3.7846776876913324e+01 -3.7854932542948383e+01 -3.7854943635948310e+01
 -4.7822048871327738e+01 -4.7822049852295528e+01 -4.7822052221552724e+01 -4.7829977998276938e+01 -4.7829978977923837e+01 -4.7829981343993488e+01 -4.7822054592174673e+01 -4.7822055574467015e+01 -4.7829983711430145e+01 -4.7829984692404160e+01
 -3.7867805607969871e+01 -3.7867816670474447e+01 -3.7867843412350183e+01 -3.7884303243692941e+01 -3.7884314310333004e+01 -3.7884341062289586e+01 -3.7867870204031981e+01 -3.7867881316320030e+01 -3.7884367864190509e+01 -3.7884378980752558e+01
 -2.7795823088552737e+01 -2.7800678765561926e+01 -2.7795946942215171e+01 -2.7800802652229180e+01 -2.7796247112395310e+01 -2.7801102901913250e+01 -2.7815284453984951e+01 -2.7815408483530089e+01 -2.7815709078278065e+01 -2.7796548975354916e+01
 -2.7801404843713325e+01 -2.7796674523384446e+01 -2.7801530424079601e+01 -2.7816011364952228e+01 -2.7816137087998879e+01 -2.2734361712319458e+01 -2.2735940872146621e+01 -2.2734963394104813e+01 -2.2740171318266039e+01 -2.2740773078588290e+01
 -2.2736538384126664e+01 -2.2736431190216980e+01 -2.2742241064254699e+01 -2.2737995832819198e+01 -1.7640600222732285e+01 -1.7643062088081663e+01 -1.7642165103558003e+01 -1.7644626705594856e+01 -1.7646903352373876e+01 -1.7649365149017264e+01
 -1.7649154293618015e+01 -1.7650718309819798e+01 -1.7655457254318087e+01 -2.2747675028281709e+01 -2.2758042113885669e+01 -2.2758644460850938e+01 -2.2748272791588818e+01 -2.2760113862006850e+01 -2.2749730843681142e+01 -1.7655052239666649e+01
 -1.7657514246295435e+01 -1.7666908093551033e+01 -1.7669371648320045e+01 -1.7663606826629255e+01 -1.7675467988021925e+01 -2.2737921599661291e+01 -2.2743731649941985e+01 -2.2739475464302402e+01 -2.2738545936431265e+01 -2.2744356051763788e+01
 -2.2740095199499514e+01 -1.7655474218182057e+01 -1.7657037578807515e+01 -1.7661776914040789e+01 -1.7658164561516440e+01 -1.7659727604062216e+01 -1.7664467020608495e+01 -2.2761605853835995e+01 -2.2751211060150982e+01 -2.2762230832736712e+01
 -2.2751831027995063e+01 -1.7669926823266167e+01 -1.7681791741197046e+01 -1.7672616999001125e+01 -1.7684483460892821e+01 -2.7839554565308163e+01 -2.7839678899943536e+01 -2.7839980233442329e+01 -2.7872653083189313e+01 -2.7872777718904800e+01
 -2.7873079783884208e+01 -2.7840283261941710e+01 -2.7840409293148738e+01 -2.7873383550477836e+01 -2.7873509889370865e+01 -2.2771964080511296e+01 -2.2789061053267329e+01 -2.2789665120010476e+01 -2.2772562928288281e+01 -2.2791138701153063e+01
 -2.2774023609032668e+01 -1.7682936704107796e+01 -1.7685402760989138e+01 -1.7703647849054072e+01 -1.7706118553790677e+01 -1.7691505216448881e+01 -1.7712232422132839e+01 -2.2809966470482006e+01 -2.2834183520805592e+01 -2.2834790317246860e+01
 -2.2810567648816424e+01 -2.2836270562512219e+01 -2.2812034004644257e+01 -1.7729690851860077e+01 -1.7732167708829788e+01 -1.7761681473498886e+01 -1.7764166569339608e+01 -1.7738296719024842e+01 -1.7770315936090491e+01 -2.2792634912561049e+01
 -2.2775506466003336e+01 -2.2793261650737900e+01 -2.2776127530039133e+01 -1.7697835185529016e+01 -1.7718574085303878e+01 -1.7700529506650263e+01 -1.7721273334780651e+01 -2.2837773545604293e+01 -2.2813522606999836e+01 -2.2838403120894910e+01
 -2.2814146071796582e+01 -1.7744653950370118e+01 -1.7776694213027255e+01 -1.7747359777423576e+01 -1.7779408966627486e+01 -1.2499771375636255e+01 -1.2501149658447154e+01 -1.2509269093179979e+01 -1.2510646326490653e+01 -1.2505445071324861e+01
 -1.2514939981384549e+01 -1.2533601003569629e+01 -1.2534977026705409e+01 -1.2539267327744643e+01 -7.2566684212872739e+00 -7.2564666060519523e+00 -7.2649538671001306e+00 -7.2569961000135637e+00 -7.2892712757476339e+00 -7.2647589598291447e+00
 -7.2897745167399171e+00 -7.2652783042933811e+00 -7.2894565000344391e+00 -7.2579550210018908e+00 -7.2662302552132250e+00 -7.2592963622176132e+00 -7.2920498907980402e+00 -7.2675712066145328e+00 -7.2907129711381398e+00 -7.3294941639161850e+00
 -7.3822625580826191e+00 -7.3293244697414508e+00 -7.3827689347937353e+00 -7.3298238425137470e+00 -7.3824090569906220e+00 -7.3307416696831247e+00 -7.3850187629204767e+00 -7.3320860723939214e+00 -7.3836559507409749e+00 -1.2513052143378857e+01
 -1.2522546799014050e+01 -1.2524521220238922e+01 -1.2534019465440187e+01 -1.2546873400166572e+01 -1.2558354804279327e+01 -7.2614811800809198e+00 -7.2697517417301025e+00 -7.2642119597992183e+00 -7.2969544733015601e+00 -7.2724844344459800e+00
 -7.2942210538844474e+00 -7.2679358641910410e+00 -7.2762063331506530e+00 -7.2723559437925775e+00 -7.3051045560915187e+00 -7.2806308700516151e+00 -7.3006727160527998e+00 -7.3342358502488638e+00 -7.3898975012428476e+00 -7.3369805052713541e+00
 -7.3871318203351723e+00 -7.3406850454920196e+00 -7.3980629883750897e+00 -7.3451386526108218e+00 -7.3935747858742005e+00 -1.2560184889977915e+01 -1.2561559383020866e+01 -1.2565844708174822e+01 -1.2571948208199011e+01 -1.2573321329798310e+01
 -1.2577603209913418e+01 -7.4427414493350854e+00 -7.5004723309458656e+00 -7.4426342220846440e+00 -7.5009875938559807e+00 -7.4431533973321020e+00 -7.5005233165992733e+00 -7.4439884614548486e+00 -7.5031857036979499e+00 -7.4453861160575228e+00
 -7.5017496401297743e+00 -7.5430143438530228e+00 -7.5589684062344764e+00 -7.5430138622374772e+00 -7.5594646480770953e+00 -7.5435179555683520e+00 -7.5589441276852467e+00 -7.5442138134033563e+00 -7.5616082238591531e+00 -7.5456802347709928e+00
 -7.5601279020717680e+00 -1.2573448448372332e+01 -1.2584938270221590e+01 -1.2585205057013646e+01 -1.2596698126417467e+01 -7.4474394561062018e+00 -7.5080147361316438e+00 -7.4502439320203102e+00 -7.5051636706292575e+00 -7.4538737644366737e+00
 -7.5161917861775400e+00 -7.4584175556693939e+00 -7.5115839655585566e+00 -7.5475937397910133e+00 -7.5664005354253892e+00 -7.5504844467707226e+00 -7.5634912419499738e+00 -7.5540023067955921e+00 -7.5745792952346509e+00 -7.5586639669797977e+00
 -7.5698935599201986e+00 -4.5268344117864414e+00 -4.5389004903867027e+00 -4.5273141658969784e+00 -4.5394848662711897e+00 -4.5261753885853979e+00 -4.5381548201969508e+00 -4.5782343801023719e+00 -4.5775710068267674e+00 -4.5767272786274500e+00
 -1.7009208023016786e+00 -1.6974754964742624e+00 -1.7088571726158195e+00 -1.7033611861469011e+00 -1.6941447759349149e+00 -1.6991137234358205e+00 -1.7439467255370222e+00 -1.7375615929022989e+00 -1.7325249454776717e+00 -4.5259316391174593e+00
 -4.5378671879981622e+00 -4.5262929877684268e+00 -4.5382089883778303e+00 -4.5763768753582132e+00 -4.5766843733907532e+00 -1.6922901203086425e+00 -1.6969764831281693e+00 -1.6915806183314719e+00 -1.6961862766713982e+00 -1.7300637021414504e+00
 -1.7291583267774986e+00 -4.6475245200132660e+00 -4.6481949918747070e+00 -4.6466668475255508e+00 -4.7546638682951032e+00 -4.7540705533181171e+00 -4.7532958121639837e+00 -1.8226828770226069e+00 -1.8162202448369738e+00 -1.8110972467209279e+00
 -1.9778029662174279e+00 -1.9721094364872251e+00 -1.9676316425661717e+00 -4.6462945924090224e+00 -4.6465792360966969e+00 -4.7529453352456850e+00 -4.7532150072119901e+00 -1.8085744634288461e+00 -1.8076212764476449e+00 -1.9653128086609728e+00
 -1.9643601107373849e+00 -9.8817273239660997e-01 -9.8217114134037453e-01 -9.9056359473723132e-01 -9.7550522645366144e-01 -2.7862293639396651e-01 -2.7101816591083538e-01 -2.7554542352748229e-01 -2.4084620776906457e-01 3.6013917559310704e-01
 3.6075726161075033e-01 3.6060564943453111e-01 3.8355460094064259e-01 4.2331080079565198e-01 4.2332905322777858e-01 4.2332871311282189e-01 4.3840019698748489e-01 -9.7846749940534938e-01 -9.6976403053283455e-01 -2.6803328931208437e-01
 -2.3490689022752526e-01 3.6086080406562399e-01 3.8370418585946864e-01 4.2332930045904060e-01 4.3840491078990157e-01 -1.0155412050999038e+00 -9.9843592474826692e-01 -2.8818411848114595e-01 -2.5042466653836409e-01 3.6018626474014120e-01