DF-ISE text

Info {
  version = 1.0
  type    = dataset
  dimension   = 3
  nb_vertices = 5293
  nb_edges    = 23303
  nb_faces    = 30690
  nb_elements = 12980
  nb_regions  = 3
  datasets    = [ "ElectrostaticPotential" "ContactExternalVoltage" "ContactCurrentFlux" "ContactCharge" "eQuasiFermiPotential" "hQuasiFermiPotential" "QuasiFermiPotential" "LatticeTemperature" ]
  functions   = [ ElectrostaticPotential ContactExternalVoltage ContactCurrentFlux ContactCharge eQuasiFermiPotential hQuasiFermiPotential QuasiFermiPotential LatticeTemperature ]
}

Data {

  Dataset ("ElectrostaticPotential") {
    function  = ElectrostaticPotential
    type      = scalar
    dimension = 1
    location  = vertex
    validity  = [ "substrate" ]
    Values (5293) {
 -1.2537888985310795e+02 -1.2537067152405852e+02 -1.2537888985310795e+02 -1.2537888985310795e+02 -1.2537067207185343e+02 -1.2537067166100310e+02 -1.2539459903196268e+02 -1.2538638155161527e+02 -1.2535550510653722e+02 -1.2535550617825155e+02
 -1.2535550537441640e+02 -1.2537121855128169e+02 -1.2532333983365184e+02 -1.2532334506458756e+02 -1.2532334107952680e+02 -1.2533907949529072e+02 -1.2526726470635934e+02 -1.2526763098769675e+02 -1.2526732880107129e+02 -1.2528762655064634e+02
 -1.2486420587986161e+02 -1.2487627015339334e+02 -1.2486612208526289e+02 -1.2493037347261019e+02 -1.2439462062258610e+02 -1.2441239611312113e+02 -1.2439708866651574e+02 -1.2444565786083814e+02 -1.2392231429195465e+02 -1.2394272873835551e+02
 -1.2392478550845911e+02 -1.2395992910729476e+02 -1.2537888985310795e+02 -1.2537067166100670e+02 -1.2539459903196268e+02 -1.2538638168855336e+02 -1.2535550537444453e+02 -1.2537121881887400e+02 -1.2532334110617218e+02 -1.2533908065742328e+02
 -1.2526734058006463e+02 -1.2528767905632371e+02 -1.2486658466447403e+02 -1.2493406709430255e+02 -1.2439787460154049e+02 -1.2445038274225637e+02 -1.2392577662120732e+02 -1.2396459329215027e+02 -1.2010078389582095e+02 -1.2010769823600282e+02
 -1.2010116090433856e+02 -1.2010905482994561e+02 -1.2010136228599693e+02 -1.2010968248617039e+02 -1.2537888985310795e+02 -1.2537067207185700e+02 -1.2539459903196268e+02 -1.2538638158585132e+02 -1.2535550617832465e+02 -1.2537121861819180e+02
 -1.2532334517383968e+02 -1.2533907980855965e+02 -1.2526767963149913e+02 -1.2528765983780863e+02 -1.2487821603087060e+02 -1.2493318237909011e+02 -1.2441599766625740e+02 -1.2445036206715085e+02 -1.2394767086381303e+02 -1.2396595186714683e+02
 -1.2539459903196268e+02 -1.2538638172278978e+02 -1.2537121888578618e+02 -1.2533908097297133e+02 -1.2528771435947698e+02 -1.2493707380986029e+02 -1.2445542168734720e+02 -1.2397103455296025e+02 -1.2011195846581653e+02 -1.2011346618992876e+02
 -1.2011417530384131e+02 -1.2537888985310795e+02 -1.2537067166100273e+02 -1.2539459903196268e+02 -1.2538638153669042e+02 -1.2535550537441166e+02 -1.2537121852211379e+02 -1.2532334107357376e+02 -1.2533907936724320e+02 -1.2526732615718325e+02
 -1.2528761974051078e+02 -1.2486601800510068e+02 -1.2492988705752022e+02 -1.2439689980383653e+02 -1.2444494310977622e+02 -1.2392453160668107e+02 -1.2395911313861433e+02 -1.2537888985310795e+02 -1.2537067150913286e+02 -1.2537717774777707e+02
 -1.2536895992183450e+02 -1.2535550507733529e+02 -1.2535379357508977e+02 -1.2532333969289786e+02 -1.2532162798255040e+02 -1.2526725558380220e+02 -1.2526517572928094e+02 -1.2486392224929770e+02 -1.2487118860779910e+02 -1.2439418994697373e+02
 -1.2440881904418112e+02 -1.2392180466949374e+02 -1.2394037016607224e+02 -1.2010102310816733e+02 -1.2010880121074742e+02 -1.2010057202501127e+02 -1.2010726552236954e+02 -1.2539459903196268e+02 -1.2538638157092640e+02 -1.2537121858902346e+02
 -1.2533907968004905e+02 -1.2528765261850690e+02 -1.2493265654184549e+02 -1.2444957612135853e+02 -1.2396504110043747e+02 -1.2537717774777707e+02 -1.2536895991379014e+02 -1.2535379355943324e+02 -1.2532162803776615e+02 -1.2526522530705614e+02
 -1.2487301667754275e+02 -1.2441224559101036e+02 -1.2394511103816281e+02 -1.2011317166996261e+02 -1.2011146080711602e+02 -1.1624755556507455e+02 -1.1624961590648442e+02 -1.1624759777046046e+02 -1.1624972568354600e+02 -1.1624761660278728e+02
 -1.1624978160415174e+02 -1.1237501571436030e+02 -1.1237568421305915e+02 -1.1237501910867925e+02 -1.1237569229022067e+02 -1.1237501810012797e+02 -1.1237569385874637e+02 -1.1625179420133344e+02 -1.1625192007577824e+02 -1.1625198480035003e+02
 -1.1237668713824314e+02 -1.1237669664022054e+02 -1.1237669864360936e+02 -1.1624755284088687e+02 -1.1624966139358682e+02 -1.1624749053620039e+02 -1.1624952039998688e+02 -1.1237500644646269e+02 -1.1237567649282178e+02 -1.1237499769004515e+02
 -1.1237566158607278e+02 -1.1625184496950898e+02 -1.1625168281429332e+02 -1.1237667836983562e+02 -1.1237666097076159e+02 -1.2537888985310795e+02 -1.2537067207185703e+02 -1.2539459903196268e+02 -1.2538638158585140e+02 -1.2535550617833687e+02
 -1.2537121861819347e+02 -1.2532334519632558e+02 -1.2533907981369398e+02 -1.2526768966577018e+02 -1.2528766440868424e+02 -1.2487861863406629e+02 -1.2493361130489710e+02 -1.2441677066903310e+02 -1.2445118470442269e+02 -1.2394877376964345e+02
 -1.2396711979430640e+02 -1.2539459903196268e+02 -1.2538638172278988e+02 -1.2537121888578790e+02 -1.2533908097824296e+02 -1.2528771905406447e+02 -1.2493751574602095e+02 -1.2445626860841621e+02 -1.2397223554845350e+02 -1.2011375558330074e+02
 -1.2011527924219257e+02 -1.2011599718202856e+02 -1.2537888985310795e+02 -1.2537067207185703e+02 -1.2539459903196268e+02 -1.2538638158585140e+02 -1.2535550617833906e+02 -1.2537121861819371e+02 -1.2532334520033359e+02 -1.2533907981456150e+02
 -1.2526769145439093e+02 -1.2528766518176026e+02 -1.2487869044157631e+02 -1.2493368388733684e+02 -1.2441690982293125e+02 -1.2445132615620122e+02 -1.2394897508567115e+02 -1.2396732460114831e+02 -1.2539459903196268e+02 -1.2538638172278988e+02
 -1.2537121888578815e+02 -1.2533908097911639e+02 -1.2528771983264043e+02 -1.2493758908159140e+02 -1.2445641151630899e+02 -1.2397244239348530e+02 -1.2011419253539898e+02 -1.2011571747995815e+02 -1.2011643597743183e+02 -1.2539459903196268e+02
 -1.2538638157092647e+02 -1.2537121858902513e+02 -1.2533907968513047e+02 -1.2528765714195957e+02 -1.2493308082167599e+02 -1.2445038989121126e+02 -1.2396619661896050e+02 -1.2537717774777707e+02 -1.2536895991379012e+02 -1.2535379355944855e+02
 -1.2532162806410885e+02 -1.2526523620985354e+02 -1.2487341160051359e+02 -1.2441300358506622e+02 -1.2394619312697122e+02 -1.2011497513064207e+02 -1.2011324376666306e+02 -1.2539459903196268e+02 -1.2538638157092647e+02 -1.2537121858902536e+02
 -1.2533907968599243e+02 -1.2528765791001564e+02 -1.2493315289850028e+02 -1.2445053036399474e+02 -1.2396640003347561e+02 -1.2537717774777707e+02 -1.2536895991379012e+02 -1.2535379355945135e+02 -1.2532162806885209e+02 -1.2526523817285971e+02
 -1.2487348274433865e+02 -1.2441314130507699e+02 -1.2394639234989457e+02 -1.2011541174995760e+02 -1.2011367839112084e+02 -1.1625305510528986e+02 -1.1625318319534992e+02 -1.1625324867825651e+02 -1.1237739279080424e+02 -1.1237740248387560e+02
 -1.1237740434140605e+02 -1.1625339993131173e+02 -1.1625352821461986e+02 -1.1625359364204411e+02 -1.1237759490618879e+02 -1.1237760460463066e+02 -1.1237760639061638e+02 -1.1625310454966719e+02 -1.1625293864540059e+02 -1.1237738317990862e+02
 -1.1237736515529024e+02 -1.1625344882884471e+02 -1.1625328241904508e+02 -1.1237758504874024e+02 -1.1237756691375145e+02 -1.0848625850963165e+02 -1.0848650027387309e+02 -1.0848625849331864e+02 -1.0848650056134194e+02 -1.0848625745904239e+02
 -1.0848649962362120e+02 -1.0458216469686468e+02 -1.0458225473308816e+02 -1.0458216460379130e+02 -1.0458225464918841e+02 -1.0458216430045771e+02 -1.0458225433307753e+02 -1.0848694812998995e+02 -1.0848694850374815e+02 -1.0848694748133350e+02
 -1.0458244564084805e+02 -1.0458244555262927e+02 -1.0458244520539141e+02 -1.0848625516944001e+02 -1.0848649672414932e+02 -1.0848625380024178e+02 -1.0848649482931782e+02 -1.0458216389250359e+02 -1.0458225386944203e+02 -1.0458216369048446e+02
 -1.0458225362953685e+02 -1.0848694413777649e+02 -1.0848694193462251e+02 -1.0458244468361671e+02 -1.0458244441091188e+02 -9.6728879428151089e+01 -9.6728903391194251e+01 -9.6728879416130155e+01 -9.6728903378858789e+01 -9.6728879384639228e+01
 -9.6728903345854775e+01 -9.6728960389977786e+01 -9.6728960376718987e+01 -9.6728960340915634e+01 -9.6728879349735038e+01 -9.6728903308430162e+01 -9.6728879334219698e+01 -9.6728903291553991e+01 -9.6728960299917418e+01 -9.6728960281322401e+01
 -1.0848730326696781e+02 -1.0848730363586147e+02 -1.0848730252801097e+02 -1.0458261079212707e+02 -1.0458261069724765e+02 -1.0458261032761965e+02 -1.0848740519384607e+02 -1.0848740555592741e+02 -1.0848740441964807e+02 -1.0458265897784840e+02
 -1.0458265888043736e+02 -1.0458265850352124e+02 -1.0848729900335364e+02 -1.0848729669412755e+02 -1.0458260977494673e+02 -1.0458260948679967e+02 -1.0848740085052225e+02 -1.0848739851784975e+02 -1.0458265794194681e+02 -1.0458265764962130e+02
 -9.6729019356962937e+01 -9.6729019342938230e+01 -9.6729019305079930e+01 -9.6729052281030945e+01 -9.6729052266726569e+01 -9.6729052228149740e+01 -9.6729019261742906e+01 -9.6729019242093344e+01 -9.6729052184033833e+01 -9.6729052164043651e+01
 -8.8815989905347067e+01 -8.8816007367093434e+01 -8.8815989904069056e+01 -8.8816007365763909e+01 -8.8815989900883167e+01 -8.8816007362458862e+01 -8.8816054756643339e+01 -8.8816054755228521e+01 -8.8816054751705281e+01 -8.8815989897525981e+01
 -8.8816007358970012e+01 -8.8815989896063712e+01 -8.8816007357455916e+01 -8.8816054747978910e+01 -8.8816054746361431e+01 -8.0843547731755137e+01 -8.0843578677082448e+01 -8.0843547731563390e+01 -8.0843578676877186e+01 -8.0843547731070714e+01
 -8.0843578676371237e+01 -8.0843666322812865e+01 -8.0843666322598963e+01 -8.0843666322074995e+01 -8.0843547730502635e+01 -8.0843578675800217e+01 -8.0843547730220536e+01 -8.0843578675525478e+01 -8.0843666321487788e+01 -8.0843666321207692e+01
 -8.8816119608337473e+01 -8.8816119606852894e+01 -8.8816119603155201e+01 -8.8816187136849479e+01 -8.8816187135330338e+01 -8.8816187131547537e+01 -8.8816119599245823e+01 -8.8816119597550170e+01 -8.8816187127550734e+01 -8.8816187125818303e+01
 -8.0843796202771685e+01 -8.0843796202549797e+01 -8.0843796202006871e+01 -8.0843947454997021e+01 -8.0843947454762727e+01 -8.0843947454189646e+01 -8.0843796201400977e+01 -8.0843796201113392e+01 -8.0843947453553369e+01 -8.0843947453253278e+01
 -7.2811444941028682e+01 -7.2811510131878094e+01 -7.2811444940985922e+01 -7.2811510131826012e+01 -7.2811444940852709e+01 -7.2811510131687271e+01 -7.2811695898820361e+01 -7.2811695898765677e+01 -7.2811695898623682e+01 -7.2811444940641096e+01
 -7.2811510131480105e+01 -7.2811444940501346e+01 -7.2811510131349721e+01 -7.2811695898415593e+01 -7.2811695898286231e+01 -6.4719407501624858e+01 -6.4719546161242789e+01 -6.4719407502130593e+01 -6.4719546161740567e+01 -6.4719407503319289e+01
 -6.4719546162924644e+01 -6.4719941996307682e+01 -6.4719941996803286e+01 -6.4719941997984890e+01 -6.4719407504423174e+01 -6.4719546164033076e+01 -6.4719407504821419e+01 -6.4719546164439649e+01 -6.4719941999093123e+01 -6.4719941999500932e+01
 -7.2811974255165012e+01 -7.2811974255107231e+01 -7.2811974254958258e+01 -7.2812303131510973e+01 -7.2812303131442434e+01 -7.2812303131267299e+01 -7.2811974254743774e+01 -7.2811974254612124e+01 -7.2812303131026553e+01 -7.2812303130884203e+01
 -6.4720537106761000e+01 -6.4720537107253080e+01 -6.4720537108426655e+01 -6.4721243324134363e+01 -6.4721243324613340e+01 -6.4721243325755069e+01 -6.4720537109527470e+01 -6.4720537109932621e+01 -6.4721243326823995e+01 -6.4721243327216158e+01
 -1.2537888985310795e+02 -1.2537067207185703e+02 -1.2539459903196268e+02 -1.2538638158585140e+02 -1.2535550617833621e+02 -1.2537121861819340e+02 -1.2532334519512135e+02 -1.2533907981343853e+02 -1.2526768912835664e+02 -1.2528766418104244e+02
 -1.2487859705273712e+02 -1.2493358992928387e+02 -1.2441672853743735e+02 -1.2445114270315780e+02 -1.2394871206043047e+02 -1.2396705815964835e+02 -1.2539459903196268e+02 -1.2538638172278988e+02 -1.2537121888578783e+02 -1.2533908097798860e+02
 -1.2528771882732808e+02 -1.2493749438595621e+02 -1.2445622662762848e+02 -1.2397217393486126e+02 -1.2011358679892355e+02 -1.2011511046476754e+02 -1.2011582840694258e+02 -1.2537888985310795e+02 -1.2537067207185699e+02 -1.2539459903196268e+02
 -1.2538638158585132e+02 -1.2535550617832217e+02 -1.2537121861819152e+02 -1.2532334516955572e+02 -1.2533907980765179e+02 -1.2526767772078101e+02 -1.2528765902927877e+02 -1.2487813940128629e+02 -1.2493310650218145e+02 -1.2441585011089506e+02
 -1.2445021499952949e+02 -1.2394745876761007e+02 -1.2396574005737615e+02 -1.2539459903196268e+02 -1.2538638172278978e+02 -1.2537121888578589e+02 -1.2533908097206739e+02 -1.2528771355420491e+02 -1.2493699799230656e+02 -1.2445527469901464e+02
 -1.2397082282574976e+02 -1.2011152236924417e+02 -1.2011303012018861e+02 -1.2011373924407486e+02 -1.2539459903196268e+02 -1.2538638157092647e+02 -1.2537121858902506e+02 -1.2533907968487483e+02 -1.2528765691414623e+02 -1.2493305944033399e+02
 -1.2445034788090433e+02 -1.2396613497325525e+02 -1.2537717774777707e+02 -1.2536895991379012e+02 -1.2535379355944769e+02 -1.2532162806266740e+02 -1.2526523561328938e+02 -1.2487338997364802e+02 -1.2441296141831327e+02 -1.2394613139065808e+02
 -1.2011480634792514e+02 -1.2011307497396820e+02 -1.2539459903196268e+02 -1.2538638157092637e+02 -1.2537121858902319e+02 -1.2533907967914043e+02 -1.2528765180935926e+02 -1.2493258064370528e+02 -1.2444942902023898e+02 -1.2396482924985611e+02
 -1.2537717774777707e+02 -1.2536895991379012e+02 -1.2535379355943009e+02 -1.2532162803263736e+02 -1.2526522318562482e+02 -1.2487293988131002e+02 -1.2441209790505022e+02 -1.2394489884055103e+02 -1.2011273558295798e+02 -1.2011102468294749e+02
 -1.1625287771798487e+02 -1.1625300580853828e+02 -1.1625307129119319e+02 -1.1237725091931112e+02 -1.1237726061233053e+02 -1.1237726246957973e+02 -1.1625139530407063e+02 -1.1625152118051680e+02 -1.1625158590468151e+02 -1.1237639278920854e+02
 -1.1237640229105595e+02 -1.1237640429357826e+02 -1.1625292716094374e+02 -1.1625276125533017e+02 -1.1237724130761701e+02 -1.1237722328273520e+02 -1.1625144606841194e+02 -1.1625128390852946e+02 -1.1237638401827451e+02 -1.1237636661829399e+02
 -1.2537888985310795e+02 -1.2537067206439019e+02 -1.2539459903196268e+02 -1.2538638154788379e+02 -1.2535550616364188e+02 -1.2537121854398781e+02 -1.2532334498088407e+02 -1.2533907946017794e+02 -1.2526762049149123e+02 -1.2528762210515133e+02
 -1.2487588889932736e+02 -1.2492999606450680e+02 -1.2441173059627694e+02 -1.2444499465284537e+02 -1.2394184427261565e+02 -1.2395904584530192e+02 -1.2539459903196268e+02 -1.2538638168482191e+02 -1.2537121881158031e+02 -1.2533908062233508e+02
 -1.2528767462800462e+02 -1.2493368995923363e+02 -1.2444971987338403e+02 -1.2396371035816492e+02 -1.2010673341309894e+02 -1.2010809010110960e+02 -1.2010871779428921e+02 -1.2537717774777707e+02 -1.2536895927470752e+02 -1.2537717774777707e+02
 -1.2536895942239953e+02 -1.2535379230876573e+02 -1.2535379259772097e+02 -1.2532162169293501e+02 -1.2532162305396741e+02 -1.2526472894785549e+02 -1.2526480028936592e+02 -1.2485794984630493e+02 -1.2485987069855285e+02 -1.2438923858620262e+02
 -1.2439170946170545e+02 -1.2391777674525170e+02 -1.2392024947184046e+02 -1.2537717774777707e+02 -1.2536895942240358e+02 -1.2535379259775523e+02 -1.2532162308597236e+02 -1.2526481341576174e+02 -1.2486033440222594e+02 -1.2439249625263632e+02
 -1.2392124118741270e+02 -1.2009893218714110e+02 -1.2009930931620262e+02 -1.2009951075394531e+02 -1.2539459903196268e+02 -1.2538638153295891e+02 -1.2537121851481984e+02 -1.2533907933212619e+02 -1.2528761529201329e+02 -1.2492950956677214e+02
 -1.2444427978159568e+02 -1.2395822973982293e+02 -1.2537717774777707e+02 -1.2536895991378557e+02 -1.2535379355932889e+02 -1.2532162788950420e+02 -1.2526516408003495e+02 -1.2487080654195034e+02 -1.2440815296439828e+02 -1.2393948532460395e+02
 -1.2010783643752343e+02 -1.2010630062548947e+02 -1.2537717774777707e+02 -1.2536895942239903e+02 -1.2535379259771501e+02 -1.2532162304681370e+02 -1.2526479734249163e+02 -1.2485976633625170e+02 -1.2439152034785010e+02 -1.2391999535125720e+02
 -1.2537717774777707e+02 -1.2536895925861040e+02 -1.2535379227726547e+02 -1.2532162153863503e+02 -1.2526471878604092e+02 -1.2485766543204527e+02 -1.2438880732717520e+02 -1.2391726669831438e+02 -1.2009917145711835e+02 -1.2009872021851857e+02
 -1.1624892813452368e+02 -1.1624903791806965e+02 -1.1624909383877116e+02 -1.1237523739749541e+02 -1.1237524547436044e+02 -1.1237524704059953e+02 -1.1624661496226480e+02 -1.1624665717556292e+02 -1.1624667600682118e+02 -1.1237448049612303e+02
 -1.1237448388949269e+02 -1.1237448287609757e+02 -1.1624897361409164e+02 -1.1624883260728289e+02 -1.1237522967039592e+02 -1.1237521476091541e+02 -1.1624661222311670e+02 -1.1624654989931835e+02 -1.1237447121356630e+02 -1.1237446245106914e+02
 -1.0848720751778258e+02 -1.0848720788660809e+02 -1.0848720677857243e+02 -1.0458255947805276e+02 -1.0458255938311582e+02 -1.0458255901334333e+02 -1.0848675831939246e+02 -1.0848675869291220e+02 -1.0848675766983111e+02 -1.0458234641825894e+02
 -1.0458234632982013e+02 -1.0458234598200822e+02 -1.0848720325370122e+02 -1.0848720094437581e+02 -1.0458255846051632e+02 -1.0458255817230119e+02 -1.0848675432546433e+02 -1.0848675212190668e+02 -1.0458234545957562e+02 -1.0458234518654989e+02
 -9.6729046697902447e+01 -9.6729046683824706e+01 -9.6729046645833975e+01 -9.6729010207721515e+01 -9.6729010194252126e+01 -9.6729010157901044e+01 -9.6729046602356703e+01 -9.6729046582645353e+01 -9.6729010116275163e+01 -9.6729010097371798e+01
 -1.0848623035437491e+02 -1.0848623064113750e+02 -1.0848622970134593e+02 -1.0458211831580792e+02 -1.0458211823121388e+02 -1.0458211791317045e+02 -1.0848595188185762e+02 -1.0848595186403404e+02 -1.0848595082507001e+02 -1.0458201325867803e+02
 -1.0458201316409635e+02 -1.0458201285619901e+02 -1.0848622679910643e+02 -1.0848622490269072e+02 -1.0458211744703050e+02 -1.0458211720568137e+02 -1.0848594852839499e+02 -1.0848594715440333e+02 -1.0458201244137999e+02 -1.0458201223458229e+02
 -9.6728967476967668e+01 -9.6728967463950383e+01 -9.6728967429046463e+01 -9.6728948290525139e+01 -9.6728948277000939e+01 -9.6728948240930023e+01 -9.6728967389139754e+01 -9.6728967370803531e+01 -9.6728948199006709e+01 -9.6728948178433910e+01
 -8.8816245062645962e+01 -8.8816245061109015e+01 -8.8816245057280554e+01 -8.8816286457196085e+01 -8.8816286455572282e+01 -8.8816286451505093e+01 -8.8816245053232748e+01 -8.8816245051476159e+01 -8.8816286447153729e+01 -8.8816286445227121e+01
 -8.0844096604493615e+01 -8.0844096604219530e+01 -8.0844096603546319e+01 -8.0844221378094858e+01 -8.0844221377672568e+01 -8.0844221376605944e+01 -8.0844096602802594e+01 -8.0844096602454414e+01 -8.0844221375394028e+01 -8.0844221374803070e+01
 -8.8816309947730716e+01 -8.8816309945721102e+01 -8.8816309940514159e+01 -8.8816317343080556e+01 -8.8816317340291903e+01 -8.8816317332459818e+01 -8.8816309934515360e+01 -8.8816309931490451e+01 -8.8816317321813600e+01 -8.8816317314862047e+01
 -8.0844303870405142e+01 -8.0844303869520232e+01 -8.0844303867107769e+01 -8.0844332663517264e+01 -8.0844332661807172e+01 -8.0844332656601807e+01 -8.0844303863996473e+01 -8.0844303862156409e+01 -8.0844332648462469e+01 -8.0844332642204108e+01
 -7.2812632598725330e+01 -7.2812632598614840e+01 -7.2812632598334389e+01 -7.2812912378129013e+01 -7.2812912377865132e+01 -7.2812912377178435e+01 -7.2812632597981008e+01 -7.2812632597788451e+01 -7.2812912376342823e+01 -7.2812912375899813e+01
 -6.4721954225199653e+01 -6.4721954225631293e+01 -6.4721954226654788e+01 -6.4722560646632658e+01 -6.4722560646902863e+01 -6.4722560647500572e+01 -6.4721954227598275e+01 -6.4721954227935015e+01 -6.4722560647941549e+01 -6.4722560648017819e+01
 -7.2813099561990001e+01 -7.2813099561257005e+01 -7.2813099559203650e+01 -7.2813165336208655e+01 -7.2813165334639336e+01 -7.2813165329727653e+01 -7.2813099556423580e+01 -7.2813099554670089e+01 -7.2813165321653628e+01 -7.2813165314990542e+01
 -6.4722967796687129e+01 -6.4722967796479949e+01 -6.4722967795686969e+01 -6.4723111142694023e+01 -6.4723111141640331e+01 -6.4723111137927901e+01 -6.4722967794136935e+01 -6.4722967792838659e+01 -6.4723111130813223e+01 -6.4723111124049069e+01
 -5.6566847583571047e+01 -5.6567140287908401e+01 -5.6566847590161082e+01 -5.6567140294492241e+01 -5.6566847606037030e+01 -5.6567140310365694e+01 -5.6567977791475897e+01 -5.6567977798058401e+01 -5.6567977813931179e+01 -5.6566847621822411e+01
 -5.6567140326156945e+01 -5.6566847628294489e+01 -5.6567140332637003e+01 -5.6567977829723951e+01 -5.6567977836205863e+01 -4.8352532572447494e+01 -4.8353141760035115e+01 -4.8352532647663267e+01 -4.8353141835259613e+01 -4.8352532829239941e+01
 -4.8353142016868055e+01 -4.8354891989140903e+01 -4.8354892064395983e+01 -4.8354892246080610e+01 -4.8352533010755636e+01 -4.8353142198423093e+01 -4.8352533085877603e+01 -4.8353142273566142e+01 -4.8354892427713942e+01 -4.8354892502890578e+01
 -5.6569242330047921e+01 -5.6569242336621642e+01 -5.6569242352473708e+01 -5.6570751581815564e+01 -5.6570751588351854e+01 -5.6570751604113433e+01 -5.6569242368246378e+01 -5.6569242374720403e+01 -5.6570751619795637e+01 -5.6570751626232479e+01
 -4.8357555243382073e+01 -4.8357555318621053e+01 -4.8357555500267246e+01 -4.8360767431431888e+01 -4.8360767506428715e+01 -4.8360767687490259e+01 -4.8357555681862856e+01 -4.8357555757024322e+01 -4.8360767868501277e+01 -4.8360767943420996e+01
 -4.0073928344532327e+01 -4.0075163350284953e+01 -4.0073929193587787e+01 -4.0075164199550414e+01 -4.0073931244249302e+01 -4.0075166250727818e+01 -4.0078738369593850e+01 -4.0078739219478720e+01 -4.0078741272153685e+01 -4.0073933296090701e+01
 -4.0075168303091559e+01 -4.0073934146287321e+01 -4.0075169153508511e+01 -4.0078743326016905e+01 -4.0078744177056002e+01 -3.1726003530139486e+01 -3.1728384339712264e+01 -3.1726013095554276e+01 -3.1728393907658599e+01 -3.1726036218791169e+01
 -3.1728417037005769e+01 -3.1735370917851437e+01 -3.1735380494772631e+01 -3.1735403645786885e+01 -3.1726059385604785e+01 -3.1728440209916240e+01 -3.1726068994574320e+01 -3.1728449821406933e+01 -3.1735426840356926e+01 -3.1735436460815553e+01
 -4.0084256705384085e+01 -4.0084257555806786e+01 -4.0084259609781967e+01 -4.0091044126843123e+01 -4.0091044975767403e+01 -4.0091047026126468e+01 -4.0084261664947952e+01 -4.0084262516527694e+01 -4.0091049077678534e+01 -4.0091049927762398e+01
 -3.1746441241337916e+01 -3.1746450832184930e+01 -3.1746474016869822e+01 -3.1760561684333606e+01 -3.1760571274611017e+01 -3.1760594458008555e+01 -3.1746497245181448e+01 -3.1746506879637057e+01 -3.1760617685158699e+01 -3.1760627319170855e+01
 -2.3299312713764941e+01 -2.3303462649058417e+01 -2.3299420143499475e+01 -2.3303570102091104e+01 -2.3299680519061983e+01 -2.3303830533599243e+01 -2.3315948591907482e+01 -2.3316056152389756e+01 -2.3316316843155764e+01 -2.3299942378472839e+01
 -2.3304092448097087e+01 -2.3300051293606707e+01 -2.3304201385665547e+01 -2.3316579016316471e+01 -2.3316688060731014e+01 -1.9050798905547676e+01 -1.9052154683955386e+01 -1.9051320756685197e+01 -1.9055758386942433e+01 -1.9056280282043730e+01
 -1.9052672913810365e+01 -1.9052593938307151e+01 -1.9057553567764291e+01 -1.9053937106676727e+01 -1.4772410679720172e+01 -1.4774545409719012e+01 -1.4773743316960148e+01 -1.4775877800196239e+01 -1.4777778477432776e+01 -1.4779913061682239e+01
 -1.4779829337541511e+01 -1.4781161161278488e+01 -1.4785196681774298e+01 -1.9062173866295687e+01 -1.9071021737458207e+01 -1.9071544065194232e+01 -1.9062692264475341e+01 -1.9072818391030971e+01 -1.9063956857331700e+01 -1.4784724442981661e+01
 -1.4786859083907233e+01 -1.4794836790442892e+01 -1.4796972598747159e+01 -1.4792142793822977e+01 -1.4802259129912823e+01 -1.9053886942934366e+01 -1.9058846659834376e+01 -1.9055220743704606e+01 -1.9054428657781454e+01 -1.9059388401741153e+01
 -1.9055758457196298e+01 -1.4785312880289942e+01 -1.4786644071560186e+01 -1.4790679711787519e+01 -1.4787647967161529e+01 -1.4788978844668224e+01 -1.4793014442737819e+01 -1.9074112508468591e+01 -1.9065240871101921e+01 -1.9074654668017626e+01
 -1.9065778729340039e+01 -1.4797625750572632e+01 -1.4807744876566987e+01 -1.4799960372024234e+01 -1.4810080632637700e+01 -2.3336704961013009e+01 -2.3336812756306458e+01 -2.3337074015740448e+01 -2.3365026063063144e+01 -2.3365134070943355e+01
 -2.3365395847688106e+01 -2.3337336760053905e+01 -2.3337446041760586e+01 -2.3365659115195815e+01 -2.3365768615366754e+01 -1.9082926131018066e+01 -1.9097533376341637e+01 -1.9098057060349667e+01 -1.9083445367373645e+01 -1.9099334683219396e+01
 -1.9084711990178466e+01 -1.4808518852165022e+01 -1.4810656607558915e+01 -1.4826207690864990e+01 -1.4828349187456988e+01 -1.4815947894457384e+01 -1.4833649667460596e+01 -1.9115418433586669e+01 -1.9136127783510872e+01 -1.9136653597294579e+01
 -1.9115939513454805e+01 -1.9137936426447887e+01 -1.9117210628373638e+01 -1.4848463288267723e+01 -1.4850609724198661e+01 -1.4875814425102595e+01 -1.4877967449889610e+01 -1.4855922376790382e+01 -1.4883296414592909e+01 -1.9100632129594530e+01
 -1.9085998039774125e+01 -1.9101175677237801e+01 -1.9086536741936317e+01 -1.4821438467885889e+01 -1.4839149670862888e+01 -1.4823776241327881e+01 -1.4841491421813096e+01 -1.9139239173335156e+01 -1.9118501230259135e+01 -1.9139784944873128e+01
 -1.9119041836033094e+01 -1.4861434920768348e+01 -1.4888825873863919e+01 -1.4863781978301127e+01 -1.4891180122442947e+01 -1.0451430126826049e+01 -1.0452592601885584e+01 -1.0459660758578593e+01 -1.0460822302008417e+01 -1.0456225284579926e+01
 -1.0464453266080213e+01 -1.0480758298434402e+01 -1.0481918843225349e+01 -1.0485546401319343e+01 -6.0401135563836332e+00 -6.0399576313292895e+00 -6.0472767354262036e+00 -6.0403478567353881e+00 -6.0683302694924839e+00 -6.0471270840704312e+00
 -6.0686968117872171e+00 -6.0475078557250201e+00 -6.0684714875584165e+00 -6.0411117959043343e+00 -6.0482656306010742e+00 -6.0421970360500090e+00 -6.0705238207626193e+00 -6.0493503460203444e+00 -6.0694429578382945e+00 -6.1031336398117855e+00
 -6.1488773178889682e+00 -6.1030050354750669e+00 -6.1492523939987160e+00 -6.1033702242636405e+00 -6.1489874587982962e+00 -6.1040994480634376e+00 -6.1510590806010788e+00 -6.1051866674532231e+00 -6.1499562738350919e+00 -1.0462678975413919e+01
 -1.0470906267850411e+01 -1.0472433130897940e+01 -1.0480662876051072e+01 -1.0491997458090669e+01 -1.0501759904454408e+01 -6.0440088523237554e+00 -6.0511583208289519e+00 -6.0462894201264170e+00 -6.0746050358705803e+00 -6.0534402516274675e+00
 -6.0723233128751293e+00 -6.0494272038127965e+00 -6.0565760606018779e+00 -6.0531620796894856e+00 -6.0814806528058822e+00 -6.0603144341085509e+00 -6.0777369715046801e+00 -6.1069669940597056e+00 -6.1551127628673052e+00 -6.1092571222744176e+00
 -6.1528063882820847e+00 -6.1123758707273890e+00 -6.1619947862187257e+00 -6.1161368004221961e+00 -6.1582059933821585e+00 -1.0503829723380296e+01 -1.0504988764587869e+01 -1.0508610978307843e+01 -1.0514047565827426e+01 -1.0515205149023696e+01
 -1.0518823620955587e+01 -6.2013333329873355e+00 -6.2515145051297152e+00 -6.2012555443064343e+00 -6.2519003827417938e+00 -6.2016453628200372e+00 -6.2515434421914877e+00 -6.2023045730639570e+00 -6.2536563411802257e+00 -6.2034362764529876e+00
 -6.2524940737867905e+00 -6.2885239517192266e+00 -6.3024403469122783e+00 -6.2885399548128227e+00 -6.3028050063633598e+00 -6.2889132518761928e+00 -6.3024021462789648e+00 -6.2894461201932215e+00 -6.3045041525078203e+00 -6.2906318325997308e+00
 -6.3033077453940933e+00 -1.0515058234784933e+01 -1.0524825958242067e+01 -1.0525268275333071e+01 -1.0535037867985723e+01 -6.2051295550525776e+00 -6.2576558343152433e+00 -6.2074669621391330e+00 -6.2552808670626838e+00 -6.2105165317966806e+00
 -6.2645380781063773e+00 -6.2143511525172324e+00 -6.2606500284500521e+00 -6.2921970769240483e+00 -6.3084638564620255e+00 -6.2946042278674259e+00 -6.3060414335228456e+00 -6.2975514229332070e+00 -6.3153423445697872e+00 -6.3014848140955388e+00
 -6.3113885076430591e+00 -3.7402593873150587e+00 -3.7506073848079642e+00 -3.7407468222683211e+00 -3.7511962096426115e+00 -3.7395576355659448e+00 -3.7498224859130258e+00 -3.7845708972064265e+00 -3.7839079336711081e+00 -3.7830323696084891e+00
 -1.3581270401111791e+00 -1.3547651517238339e+00 -1.3645613793896347e+00 -1.3591987711675328e+00 -1.3514993078263464e+00 -1.3550409800527072e+00 -1.3943593471272446e+00 -1.3881434154005770e+00 -1.3832295231106793e+00 -3.7392148713194300e+00
 -3.7494382492283505e+00 -3.7394137076093559e+00 -3.7496188590501811e+00 -3.7825913003977885e+00 -3.7827410636939183e+00 -1.3496511675343830e+00 -1.3529194349819242e+00 -1.3488954091155980e+00 -1.3520863503544867e+00 -1.3808016432643249e+00
 -1.3798613571378779e+00 -3.8442929857017463e+00 -3.8449562178490129e+00 -3.8434140210727539e+00 -3.9370094459434619e+00 -3.9364332301550018e+00 -3.9356506802603031e+00 -1.4618282739013608e+00 -1.4555811381220913e+00 -1.4506259369130809e+00
 -1.5950369415483072e+00 -1.5896538074040343e+00 -1.5854195638522091e+00 -3.8429596805211386e+00 -3.8430913344885207e+00 -3.9352281943567111e+00 -3.9353496917963717e+00 -1.4481620463215088e+00 -1.4471855438432233e+00 -1.5831966762692529e+00
 -1.5822351787388802e+00 -7.5809563248521050e-01 -7.5225364222994384e-01 -7.5946776582004660e-01 -7.4478010838742481e-01 -1.6169206301349334e-01 -1.5431580426203031e-01 -1.5819683386272643e-01 -1.2438389548945261e-01 3.6382923602189582e-01
 3.6432738938910203e-01 3.6421542710624488e-01 3.8500114622021836e-01 4.2331908125537698e-01 4.2333705175131531e-01 4.2333680067336621e-01 4.3840187267943492e-01 -7.4863567235902495e-01 -7.3917454734003185e-01 -1.5141086720720709e-01
 -1.1859531319424192e-01 3.6441379197419138e-01 3.8513346887338096e-01 4.2333726036602159e-01 4.3840656431067404e-01 -7.8049612630688114e-01 -7.6383622887361735e-01 -1.6867889280347503e-01 -1.3192577271226172e-01 3.6391627676257132e-01