DF-ISE text

Info {
  version = 1.0
  type    = dataset
  dimension   = 3
  nb_vertices = 5293
  nb_edges    = 23303
  nb_faces    = 30690
  nb_elements = 12980
  nb_regions  = 3
  datasets    = [ "ElectrostaticPotential" "ContactExternalVoltage" "ContactCurrentFlux" "ContactCharge" "eQuasiFermiPotential" "hQuasiFermiPotential" "QuasiFermiPotential" "LatticeTemperature" ]
  functions   = [ ElectrostaticPotential ContactExternalVoltage ContactCurrentFlux ContactCharge eQuasiFermiPotential hQuasiFermiPotential QuasiFermiPotential LatticeTemperature ]
}

Data {

  Dataset ("ElectrostaticPotential") {
    function  = ElectrostaticPotential
    type      = scalar
    dimension = 1
    location  = vertex
    validity  = [ "substrate" ]
    Values (5293) {
 -4.5037888985310786e+02 -4.5037067152396230e+02 -4.5037888985310786e+02 -4.5037888985310786e+02 -4.5037067207177478e+02 -4.5037067166090969e+02 -4.5039459903196263e+02 -4.5038638155161448e+02 -4.5035550458945175e+02 -4.5035550575549200e+02
 -4.5035550487262714e+02 -4.5037121854391046e+02 -4.5032238949267833e+02 -4.5032256799843259e+02 -4.5032241883000569e+02 -4.5033905244377513e+02 -4.4985204101148588e+02 -4.4992666613550148e+02 -4.4986409200186534e+02 -4.5026358842850738e+02
 -4.4818313469506796e+02 -4.4829497771219627e+02 -4.4819919560854720e+02 -4.4854695522108301e+02 -4.4644281332845037e+02 -4.4656735745922248e+02 -4.4645830283588003e+02 -4.4671858408479318e+02 -4.4469480668561692e+02 -4.4482053541169142e+02
 -4.4470810784031505e+02 -4.4489850411119011e+02 -4.5037888985310786e+02 -4.5037067166091379e+02 -4.5039459903196263e+02 -4.5038638168855266e+02 -4.5035550487508067e+02 -4.5037121881184453e+02 -4.5032242331386021e+02 -4.5033905483544368e+02
 -4.4986601231639685e+02 -4.5026468779268578e+02 -4.4820272131716575e+02 -4.4856412968287987e+02 -4.4646277394614174e+02 -4.4673980469498628e+02 -4.4471302174075595e+02 -4.4491896801195281e+02 -4.3050046049585490e+02 -4.3053949992416102e+02
 -4.3050223035923477e+02 -4.3054552186322377e+02 -4.3050293261859554e+02 -4.3054792384528292e+02 -4.5037888985310786e+02 -4.5037067207178040e+02 -4.5039459903196263e+02 -4.5038638158585059e+02 -4.5035550576636325e+02 -4.5037121861102241e+02
 -4.5032258795412747e+02 -4.5033905349033722e+02 -4.4993527541928785e+02 -4.5026425911157554e+02 -4.4831224788366904e+02 -4.4856322793329167e+02 -4.4659215008092434e+02 -4.4674540146510617e+02 -4.4485134311691718e+02 -4.4493262858110376e+02
 -4.5039459903196263e+02 -4.5038638172278911e+02 -4.5037121887894801e+02 -4.5033905584635016e+02 -4.5026532803142737e+02 -4.4858087427350171e+02 -4.4676757529699381e+02 -4.4495439296954424e+02 -4.3056354901120386e+02 -4.3057010531148808e+02
 -4.3057273270202052e+02 -4.5037888985310786e+02 -4.5037067166090912e+02 -4.5039459903196263e+02 -4.5038638153668967e+02 -4.5035550487147032e+02 -4.5037121851465884e+02 -4.5032241670671976e+02 -4.5033905201842083e+02 -4.4986318257488733e+02
 -4.5026333058374769e+02 -4.4819744732302797e+02 -4.4854225850327077e+02 -4.4645589369290281e+02 -4.4671181408486842e+02 -4.4470521959251414e+02 -4.4489082648937125e+02 -4.5037888985310786e+02 -4.5037067150903590e+02 -4.5037717774777707e+02
 -4.5036895992171753e+02 -4.5035550455612503e+02 -4.5035379299214492e+02 -4.5032238177686918e+02 -4.5032063437871847e+02 -4.4984879982536586e+02 -4.4986275476625138e+02 -4.4817826432318361e+02 -4.4824710193140663e+02 -4.4643726742907643e+02
 -4.4653425740713561e+02 -4.4468905423150818e+02 -4.4479864090479657e+02 -4.3050084322584291e+02 -4.3054313062162953e+02 -4.3049832648604081e+02 -4.3053543822815112e+02 -4.5039459903196263e+02 -4.5038638157092566e+02 -4.5037121858176829e+02
 -4.5033905305691854e+02 -4.5026399414783856e+02 -4.4855811434522110e+02 -4.4673790856425501e+02 -4.4492401222980175e+02 -4.5037717774777707e+02 -4.5036895991367533e+02 -4.5035379298716492e+02 -4.5032065263341053e+02 -4.4987001872621113e+02
 -4.4826242087934321e+02 -4.4655691441377235e+02 -4.4482731899935271e+02 -4.3056732990695548e+02 -4.3055886909752036e+02 -4.1619902334051523e+02 -4.1621042606397128e+02 -4.1619918708433499e+02 -4.1621087429783637e+02 -4.1619917444990045e+02
 -4.1621098967056008e+02 -4.0185861757839803e+02 -4.0186227595731373e+02 -4.0185862168607679e+02 -4.0186229823957433e+02 -4.0185858687281524e+02 -4.0186226846395664e+02 -4.1622246595405602e+02 -4.1622296824001137e+02 -4.1622309351332621e+02
 -4.0186772184216238e+02 -4.0186774755086958e+02 -4.0186771358971339e+02 -4.1619874825494912e+02 -4.1621026634358878e+02 -4.1619838813818916e+02 -4.1620952407684939e+02 -4.0185849958572805e+02 -4.0186214858611959e+02 -4.0185844377185822e+02
 -4.0186206167801885e+02 -4.1622226046308441e+02 -4.1622141692211869e+02 -4.0186757525956580e+02 -4.0186747512460198e+02 -4.5037888985310786e+02 -4.5037067207178080e+02 -4.5039459903196263e+02 -4.5038638158585064e+02 -4.5035550576851932e+02
 -4.5037121861104640e+02 -4.5032259191696505e+02 -4.5033905357738945e+02 -4.4993698622377514e+02 -4.5026433636421945e+02 -4.4831578487774311e+02 -4.4856580749692711e+02 -4.4659746459408632e+02 -4.4675024614923643e+02 -4.4485825885981728e+02
 -4.4493943122688057e+02 -4.5039459903196263e+02 -4.5038638172278911e+02 -4.5037121887896967e+02 -4.5033905592492971e+02 -4.5026539798862291e+02 -4.4858341138463970e+02 -4.4677238910156586e+02 -4.4496119044778629e+02 -4.3057358344620178e+02
 -4.3058016499965862e+02 -4.3058278802168303e+02 -4.5037888985310786e+02 -4.5037067207178086e+02 -4.5039459903196263e+02 -4.5038638158585064e+02 -4.5035550576886970e+02 -4.5037121861105015e+02 -4.5032259256114196e+02 -4.5033905359107939e+02
 -4.4993726435808782e+02 -4.5026434851338797e+02 -4.4831636304956845e+02 -4.4856621419171466e+02 -4.4659834214920738e+02 -4.4675102050541415e+02 -4.4485941612091364e+02 -4.4494053659807679e+02 -4.5039459903196263e+02 -4.5038638172278911e+02
 -4.5037121887897302e+02 -4.5033905593707135e+02 -4.5026540879946765e+02 -4.4858380484982439e+02 -4.4677314684580858e+02 -4.4496227937970042e+02 -4.3057572488249468e+02 -4.3058230374331868e+02 -4.3058492105073350e+02 -4.5039459903196263e+02
 -4.5038638157092572e+02 -4.5037121858179211e+02 -4.5033905314304155e+02 -4.5026407056209877e+02 -4.4856064041354068e+02 -4.4674265462117347e+02 -4.4493067993963450e+02 -4.5037717774777707e+02 -4.5036895991367578e+02 -4.5035379298957992e+02
 -4.5032065674977002e+02 -4.4987165109791505e+02 -4.4826580948563770e+02 -4.4656202479713079e+02 -4.4483398899908582e+02 -4.3057729517091116e+02 -4.3056876256558343e+02 -4.5039459903196263e+02 -4.5038638157092572e+02 -4.5037121858179586e+02
 -4.5033905315667181e+02 -4.5026408265543529e+02 -4.4856104097423520e+02 -4.4674341744289768e+02 -4.4493176924183109e+02 -4.5037717774777707e+02 -4.5036895991367589e+02 -4.5035379298998089e+02 -4.5032065743311028e+02 -4.4987192211281325e+02
 -4.4826637333551020e+02 -4.4656288145268712e+02 -4.4483511982336751e+02 -4.3057941755786021e+02 -4.3057088026885049e+02 -4.1622929540243382e+02 -4.1622980064171185e+02 -4.1622991817674125e+02 -4.0187141721946256e+02 -4.0187144243203528e+02
 -4.0187140504686920e+02 -4.1623081986701158e+02 -4.1623132450345850e+02 -4.1623143937355309e+02 -4.0187216697271583e+02 -4.0187219187918697e+02 -4.0187215348345126e+02 -4.1622905909753626e+02 -4.1622819785485240e+02 -4.0187126043664318e+02
 -4.0187115671038822e+02 -4.1623057576585626e+02 -4.1622971207294489e+02 -4.0187200748494303e+02 -4.0187190306354177e+02 -3.8749600898014933e+02 -3.8749730687012055e+02 -3.8749600564763830e+02 -3.8749730443864314e+02 -3.8749599279203193e+02
 -3.8749729091543441e+02 -3.7311597803756939e+02 -3.7311643941899933e+02 -3.7311597689501389e+02 -3.7311643825532781e+02 -3.7311597375780241e+02 -3.7311643491077734e+02 -3.8749966935170409e+02 -3.8749966675494386e+02 -3.8749965159449596e+02
 -3.7311738650099909e+02 -3.7311738523002481e+02 -3.7311738153781738e+02 -3.8749597380700305e+02 -3.8749726806139205e+02 -3.8749596386762880e+02 -3.8749725525938504e+02 -3.7311597011341968e+02 -3.7311643086498179e+02 -3.7311596844268280e+02
 -3.7311642896003445e+02 -3.8749962555643390e+02 -3.8749961089363171e+02 -3.7311737702743454e+02 -3.7311737489197651e+02 -3.4430861558290252e+02 -3.4430871564192591e+02 -3.4430861546124208e+02 -3.4430871551518089e+02 -3.4430861515571075e+02
 -3.4430871519390638e+02 -3.4430893658907354e+02 -3.4430893645205686e+02 -3.4430893610350410e+02 -3.4430861483390424e+02 -3.4430871485176311e+02 -3.4430861469557919e+02 -3.4430871470354896e+02 -3.4430893573070716e+02 -3.4430893556874639e+02
 -3.8750142974352468e+02 -3.8750142683097721e+02 -3.8750141062165665e+02 -3.7311811858725599e+02 -3.7311811723205705e+02 -3.7311811331109703e+02 -3.8750168389198058e+02 -3.8750168086796100e+02 -3.8750166434605677e+02 -3.7311813509123027e+02
 -3.7311813370807545e+02 -3.7311812971506833e+02 -3.8750138315341081e+02 -3.8750136777399177e+02 -3.7311810853723870e+02 -3.7311810628181132e+02 -3.8750163650513372e+02 -3.8750162095263568e+02 -3.7311812486282304e+02 -3.7311812257299653e+02
 -3.4430911584525069e+02 -3.4430911570048056e+02 -3.4430911533235826e+02 -3.4430911447634611e+02 -3.4430911432891088e+02 -3.4430911395417979e+02 -3.4430911493881246e+02 -3.4430911476789890e+02 -3.4430911355378254e+02 -3.4430911337995866e+02
 -3.1544104355912509e+02 -3.1544109937949611e+02 -3.1544104354747441e+02 -3.1544109936742291e+02 -3.1544104351892611e+02 -3.1544109933780180e+02 -3.1544124483700040e+02 -3.1544124482412246e+02 -3.1544124479248632e+02 -3.1544104348977112e+02
 -3.1544109930747243e+02 -3.1544104347746395e+02 -3.1544109929467436e+02 -3.1544124476004623e+02 -3.1544124474634600e+02 -2.8651361229405211e+02 -2.8651371190508314e+02 -2.8651361229293650e+02 -2.8651371190392808e+02 -2.8651361229017078e+02
 -2.8651371190109120e+02 -2.8651399263464560e+02 -2.8651399263343274e+02 -2.8651399263045107e+02 -2.8651361228728541e+02 -2.8651371189813955e+02 -2.8651361228600280e+02 -2.8651371189685688e+02 -2.8651399262735134e+02 -2.8651399262600762e+02
 -3.1544142724768517e+02 -3.1544142723416547e+02 -3.1544142720095141e+02 -3.1544158996141346e+02 -3.1544158994764967e+02 -3.1544158991383932e+02 -3.1544142716689561e+02 -3.1544142715251490e+02 -3.1544158987917956e+02 -3.1544158986454676e+02
 -2.8651440482094915e+02 -2.8651440481968319e+02 -2.8651440481657113e+02 -2.8651487893977361e+02 -2.8651487893847252e+02 -2.8651487893527474e+02 -2.8651440481334015e+02 -2.8651440481194186e+02 -2.8651487893195878e+02 -2.8651487893052587e+02
 -2.5752597106417420e+02 -2.5752618688261424e+02 -2.5752597106418324e+02 -2.5752618688261180e+02 -2.5752597106414129e+02 -2.5752618688256621e+02 -2.5752680153338440e+02 -2.5752680153337934e+02 -2.5752680153332449e+02 -2.5752597106399259e+02
 -2.5752618688242097e+02 -2.5752597106384451e+02 -2.5752618688230103e+02 -2.5752680153316919e+02 -2.5752680153304613e+02 -2.2847719011310716e+02 -2.2847765335889272e+02 -2.2847719011497628e+02 -2.2847765336075335e+02 -2.2847719011942328e+02
 -2.2847765336520246e+02 -2.2847897562137601e+02 -2.2847897562323794e+02 -2.2847897562768745e+02 -2.2847719012376197e+02 -2.2847765336954993e+02 -2.2847719012546909e+02 -2.2847765337128607e+02 -2.2847897563203463e+02 -2.2847897563377171e+02
 -2.5752772159391441e+02 -2.5752772159390190e+02 -2.5752772159382789e+02 -2.5752880718905260e+02 -2.5752880718902082e+02 -2.5752880718889929e+02 -2.5752772159365372e+02 -2.5752772159352304e+02 -2.5752880718867868e+02 -2.5752880718852947e+02
 -2.2848096305700565e+02 -2.2848096305885954e+02 -2.2848096306328841e+02 -2.2848332077174533e+02 -2.2848332077356778e+02 -2.2848332077791983e+02 -2.2848096306761522e+02 -2.2848096306934414e+02 -2.2848332078217103e+02 -2.2848332078386940e+02
 -4.5037888985310786e+02 -4.5037067207178069e+02 -4.5039459903196263e+02 -4.5038638158585064e+02 -4.5035550576828513e+02 -4.5037121861104384e+02 -4.5032259148659114e+02 -4.5033905356823902e+02 -4.4993680040114589e+02 -4.5026432824350775e+02
 -4.4831539608529084e+02 -4.4856553561852081e+02 -4.4659686768631548e+02 -4.4674972355337025e+02 -4.4485745841513329e+02 -4.4493867355474919e+02 -4.5039459903196263e+02 -4.5038638172278911e+02 -4.5037121887896751e+02 -4.5033905591684629e+02
 -4.5026539079095966e+02 -4.4858314938661510e+02 -4.4677187962079051e+02 -4.4496044657898852e+02 -4.3057159600805625e+02 -4.3057818188474994e+02 -4.3058080742852133e+02 -4.5037888985310786e+02 -4.5037067207178023e+02 -4.5039459903196263e+02
 -4.5038638158585059e+02 -4.5035550576551594e+02 -4.5037121861101360e+02 -4.5032258639699654e+02 -4.5033905345814640e+02 -4.4993460328403904e+02 -4.5026423054796277e+02 -4.4831086429814991e+02 -4.4856227773614557e+02 -4.4659006875221968e+02
 -4.4674360002421224e+02 -4.4484861551054428e+02 -4.4493006437180850e+02 -4.5039459903196263e+02 -4.5038638172278905e+02 -4.5037121887894028e+02 -4.5033905581804845e+02 -4.5026530283315708e+02 -4.4857996130364324e+02 -4.4676582345616941e+02
 -4.4495188098377571e+02 -4.3055845860980924e+02 -4.3056503076532960e+02 -4.3056766713695521e+02 -4.5039459903196263e+02 -4.5038638157092572e+02 -4.5037121858178955e+02 -4.5033905313378460e+02 -4.5026406234900600e+02 -4.4856036845759758e+02
 -4.4674213195967826e+02 -4.4492992221187438e+02 -4.5037717774777707e+02 -4.5036895991367567e+02 -4.5035379298930496e+02 -4.5032065628104124e+02 -4.4987146519803298e+02 -4.4826542061692669e+02 -4.4656142781640875e+02 -4.4483318848585822e+02
 -4.3057531203750682e+02 -4.3056677510201206e+02 -4.5039459903196263e+02 -4.5038638157092566e+02 -4.5037121858175942e+02 -4.5033905302435267e+02 -4.5026396525946245e+02 -4.4855716386571083e+02 -4.4673610688098216e+02 -4.4492144781463338e+02
 -4.5037717774777707e+02 -4.5036895991367504e+02 -4.5035379298616971e+02 -4.5032065093744296e+02 -4.4986934629644264e+02 -4.4826103700345800e+02 -4.4655483281017752e+02 -4.4482459113858937e+02 -4.3056225530200362e+02 -4.3055377861564722e+02
 -4.1622720191005584e+02 -4.1622770760635683e+02 -4.1622782548599872e+02 -4.0186969444421527e+02 -4.0186971970577872e+02 -4.0186968236227949e+02 -4.1621779854176538e+02 -4.1621830238942118e+02 -4.1621842880824937e+02 -4.0186417885662070e+02
 -4.0186420472034524e+02 -4.0186417088842370e+02 -4.1622696605638981e+02 -4.1622610435433592e+02 -4.0186953770848817e+02 -4.0186943393245917e+02 -4.1621759459597558e+02 -4.1621674948658870e+02 -4.0186403242360927e+02 -4.0186393213131919e+02
 -4.5037888985310786e+02 -4.5037067206431067e+02 -4.5039459903196263e+02 -4.5038638154788299e+02 -4.5035550573621271e+02 -4.5037121853656117e+02 -4.5032255933500210e+02 -4.5033905220865006e+02 -4.4992296073245973e+02 -4.5026341062328515e+02
 -4.4828825497339233e+02 -4.4854240640346319e+02 -4.4655825881412716e+02 -4.4671076252785525e+02 -4.4480958248701876e+02 -4.4488819261849926e+02 -4.5039459903196263e+02 -4.5038638168482117e+02 -4.5037121880450138e+02 -4.5033905462174016e+02
 -4.5026452851016342e+02 -4.4855973504942057e+02 -4.4673216979911439e+02 -4.4490883526745108e+02 -4.3052839393360739e+02 -4.3053446435009931e+02 -4.3053689095322312e+02 -4.5037717774777707e+02 -4.5036895927456396e+02 -4.5037717774777707e+02
 -4.5036895942225954e+02 -4.5035379159321224e+02 -4.5035379190034246e+02 -4.5032040221363525e+02 -4.5032043452405492e+02 -4.4977351575446579e+02 -4.4978568489588525e+02 -4.4811262994900432e+02 -4.4812883764322476e+02 -4.4638309655280938e+02
 -4.4639872344405472e+02 -4.4464439712851674e+02 -4.4465781363933104e+02 -4.5037717774777707e+02 -4.5036895942226425e+02 -4.5035379190325830e+02 -4.5032043946649736e+02 -4.4978762494577308e+02 -4.4813239854992105e+02 -4.4640323894606075e+02
 -4.4466277643911855e+02 -4.3047964730446586e+02 -4.3048143309746888e+02 -4.3048214553281537e+02 -4.5039459903196263e+02 -4.5038638153295818e+02 -4.5037121850730892e+02 -4.5033905178103640e+02 -4.5026315082189444e+02 -4.4853770825561884e+02
 -4.4670399149215291e+02 -4.4488051426898863e+02 -4.5037717774777707e+02 -4.5036895991366748e+02 -4.5035379297090094e+02 -4.5032062494381489e+02 -4.4985904782747087e+02 -4.4824037789968457e+02 -4.4652515770381848e+02 -4.4478768713434039e+02
 -4.3053207296591069e+02 -4.3052433204545792e+02 -4.5037717774777707e+02 -4.5036895942225880e+02 -4.5035379189898066e+02 -4.5032043220652605e+02 -4.4978477511493503e+02 -4.4812708898376189e+02 -4.4639631393575354e+02 -4.4465492504732373e+02
 -4.5037717774777707e+02 -4.5036895925846568e+02 -4.5035379155685706e+02 -4.5032039379237989e+02 -4.4977027380216890e+02 -4.4810775890835993e+02 -4.4637755006778576e+02 -4.4463864416248845e+02 -4.3048004584489013e+02 -4.3047751311572131e+02
 -4.1620247080060648e+02 -4.1620292297238694e+02 -4.1620304103778795e+02 -4.0185695546583474e+02 -4.0185697808565959e+02 -4.0185694857945657e+02 -4.1618826467888874e+02 -4.1618843028209869e+02 -4.1618841908358957e+02 -4.0185229177764728e+02
 -4.0185229608673444e+02 -4.0185226144077581e+02 -4.1620231498301018e+02 -4.1620156876329406e+02 -4.0185682841916326e+02 -4.0185674116699624e+02 -4.1618799140566091e+02 -4.1618762939908459e+02 -4.0185217395831438e+02 -4.0185211792012035e+02
 -3.8750017472853909e+02 -3.8750017182114522e+02 -3.8750015561633330e+02 -3.7311728376454568e+02 -3.7311728240966931e+02 -3.7311727848886818e+02 -3.8749720684849945e+02 -3.8749720426685923e+02 -3.8749718911936321e+02 -3.7311579498376847e+02
 -3.7311579371359483e+02 -3.7311579002157390e+02 -3.8750012814277915e+02 -3.8750011275787489e+02 -3.7311727371435626e+02 -3.7311727145840081e+02 -3.8749716306570247e+02 -3.8749714838661305e+02 -3.7311578550906825e+02 -3.7311578337193600e+02
 -3.4430888701480615e+02 -3.4430888686996616e+02 -3.4430888650164889e+02 -3.4430850599374838e+02 -3.4430850585644669e+02 -3.4430850550709749e+02 -3.4430888610787736e+02 -3.4430888593685921e+02 -3.4430850513332098e+02 -3.4430850497083793e+02
 -3.8749384625418350e+02 -3.8749384385188182e+02 -3.8749383035221621e+02 -3.7311428488427367e+02 -3.7311428372159293e+02 -3.7311428037599160e+02 -3.8749210381324070e+02 -3.8749210049984185e+02 -3.8749208765599724e+02 -3.7311360425244828e+02
 -3.7311360310917746e+02 -3.7311359996586430e+02 -3.8749380746640884e+02 -3.8749379463067817e+02 -3.7311427632415268e+02 -3.7311427441412297e+02 -3.8749206863578269e+02 -3.8749205865602300e+02 -3.7311359630528153e+02 -3.7311359461417356e+02
 -3.4430814194704914e+02 -3.4430814181934102e+02 -3.4430814149525514e+02 -3.4430798908452363e+02 -3.4430798896058326e+02 -3.4430798864752654e+02 -3.4430814114906468e+02 -3.4430814099780542e+02 -3.4430798831111713e+02 -3.4430798815362283e+02
 -3.1544169614952591e+02 -3.1544169613592499e+02 -3.1544169610250674e+02 -3.1544174051171080e+02 -3.1544174049851802e+02 -3.1544174046606020e+02 -3.1544169606824124e+02 -3.1544169605377016e+02 -3.1544174043267981e+02 -3.1544174041849328e+02
 -2.8651533997359923e+02 -2.8651533997225135e+02 -2.8651533996893420e+02 -2.8651572040041981e+02 -2.8651572039889078e+02 -2.8651572039508557e+02 -2.8651533996549364e+02 -2.8651533996400542e+02 -2.8651572039104599e+02 -2.8651572038921688e+02
 -3.1544174537441779e+02 -3.1544174536133096e+02 -3.1544174532885603e+02 -3.1544174200361476e+02 -3.1544174198964021e+02 -3.1544174195352582e+02 -3.1544174529454125e+02 -3.1544174527873895e+02 -3.1544174190973717e+02 -3.1544174187768488e+02
 -2.8651596910812208e+02 -2.8651596910595134e+02 -2.8651596910025864e+02 -2.8651605536352645e+02 -2.8651605536008492e+02 -2.8651605534974681e+02 -2.8651596909332079e+02 -2.8651596908901769e+02 -2.8651605533214246e+02 -2.8651605531045908e+02
 -2.5752989315813608e+02 -2.5752989315803819e+02 -2.5752989315775017e+02 -2.5753081410408811e+02 -2.5753081410375972e+02 -2.5753081410286381e+02 -2.5752989315735795e+02 -2.5752989315713398e+02 -2.5753081410175179e+02 -2.5753081410113663e+02
 -2.2848569326653467e+02 -2.2848569326826248e+02 -2.2848569327237905e+02 -2.2848771639537478e+02 -2.2848771639682943e+02 -2.2848771640023500e+02 -2.2848569327638984e+02 -2.2848569327798504e+02 -2.2848771640342318e+02 -2.2848771640458463e+02
 -2.5753142961287261e+02 -2.5753142961184426e+02 -2.5753142960891910e+02 -2.5753164577577667e+02 -2.5753164577344847e+02 -2.5753164576580400e+02 -2.5753142960476254e+02 -2.5753142960159602e+02 -2.5753164575082940e+02 -2.5753164572958673e+02
 -2.2848907436530561e+02 -2.2848907436601846e+02 -2.2848907436729419e+02 -2.2848955240364572e+02 -2.2848955240304011e+02 -2.2848955239955032e+02 -2.2848907436733563e+02 -2.2848907436588857e+02 -2.2848955238865742e+02 -2.2848955236842278e+02
 -1.9936528990141488e+02 -1.9936627047568521e+02 -1.9936528992328283e+02 -1.9936627049755515e+02 -1.9936528997601110e+02 -1.9936627055030942e+02 -1.9936907572419344e+02 -1.9936907574607889e+02 -1.9936907579886804e+02 -1.9936529002863182e+02
 -1.9936627060296243e+02 -1.9936529005033515e+02 -1.9936627062470325e+02 -1.9936907585155524e+02 -1.9936907587331126e+02 -1.7018613110006791e+02 -1.7018817490134873e+02 -1.7018613134739411e+02 -1.7018817514884836e+02 -1.7018613194449637e+02
 -1.7018817574638919e+02 -1.7019404527786537e+02 -1.7019404552571515e+02 -1.7019404612409934e+02 -1.7018613254159087e+02 -1.7018817634392835e+02 -1.7018613278884865e+02 -1.7018817659139330e+02 -1.7019404672248166e+02 -1.7019404697029714e+02
 -1.9937331011135973e+02 -1.9937331013321165e+02 -1.9937331018591880e+02 -1.9937836194297319e+02 -1.9937836196465952e+02 -1.9937836201696587e+02 -1.9937331023852428e+02 -1.9937331026024677e+02 -1.9937836206917183e+02 -1.9937836209072967e+02
 -1.7020297339453330e+02 -1.7020297364233681e+02 -1.7020297424060843e+02 -1.7021373402240147e+02 -1.7021373426881067e+02 -1.7021373486371502e+02 -1.7020297483887890e+02 -1.7020297508664845e+02 -1.7021373545861937e+02 -1.7021373570499546e+02
 -1.4093120061703962e+02 -1.4093535175047543e+02 -1.4093120340588911e+02 -1.4093535454213722e+02 -1.4093121014119893e+02 -1.4093536128426368e+02 -1.4094736258431925e+02 -1.4094736538216333e+02 -1.4094737213922727e+02 -1.4093121687995944e+02
 -1.4093536802985841e+02 -1.4093121967219577e+02 -1.4093537082495084e+02 -1.4094737889977861e+02 -1.4094738170107311e+02 -1.1158355840488689e+02 -1.1159158704774637e+02 -1.1158358981197124e+02 -1.1159161849566934e+02 -1.1158366571989706e+02
 -1.1159169450255769e+02 -1.1161512922416783e+02 -1.1161516076674749e+02 -1.1161523700268111e+02 -1.1158374174872898e+02 -1.1159177063084243e+02 -1.1158377327668607e+02 -1.1159180220015234e+02 -1.1161531336074150e+02 -1.1161534502543842e+02
 -1.4096588534785877e+02 -1.4096588814900699e+02 -1.4096589491405643e+02 -1.4098863818403527e+02 -1.4098864097432985e+02 -1.4098864771317577e+02 -1.4096590168260744e+02 -1.4096590448721986e+02 -1.4098865445552494e+02 -1.4098865724928515e+02
 -1.1165237395724679e+02 -1.1165240558240484e+02 -1.1165248201805443e+02 -1.1169977023102342e+02 -1.1169980180315879e+02 -1.1169987811094467e+02 -1.1165255857632562e+02 -1.1165259032409575e+02 -1.1169995454154625e+02 -1.1169998623648848e+02
 -8.2111268542859008e+01 -8.2125348398368274e+01 -8.2111621254061504e+01 -8.2125701677134487e+01 -8.2112475622648532e+01 -8.2126557430266374e+01 -8.2167662796284034e+01 -8.2168017400466979e+01 -8.2168876372877236e+01 -8.2113334097907028e+01
 -8.2127417309481970e+01 -8.2113690918014484e+01 -8.2127774716521614e+01 -8.2169739498149212e+01 -8.2170098257333464e+01 -6.7308195679059409e+01 -6.7312691811992934e+01 -6.7309910115969103e+01 -6.7325107809648884e+01 -6.7326825700426809e+01
 -6.7314395218512104e+01 -6.7314086637298118e+01 -6.7331010839474160e+01 -6.7318544501514353e+01 -5.2440584863318122e+01 -5.2447616426558376e+01 -5.2445135008866579e+01 -5.2452170748549065e+01 -5.2458961322518249e+01 -5.2466009960532098e+01
 -5.2464962362952825e+01 -5.2469528076986528e+01 -5.2483400851448422e+01 -6.7346851152119584e+01 -6.7377121288459136e+01 -6.7378846676043395e+01 -6.7348560526621512e+01 -6.7383050199373315e+01 -6.7352724565245168e+01 -5.2482778118222470e+01
 -5.2489842168994414e+01 -5.2517492653349969e+01 -5.2524574626537323e+01 -5.2507272107678261e+01 -5.2542049000114666e+01 -6.7318317904186330e+01 -6.7335251091829562e+01 -6.7322747613824447e+01 -6.7320087145688589e+01 -6.7337024152435063e+01
 -6.7324504906104224e+01 -5.2482858742748277e+01 -5.2487437456620647e+01 -5.2501346929220894e+01 -5.2490441831648397e+01 -5.2495026308414801e+01 -5.2508951780671850e+01 -6.7387309225297230e+01 -6.7356942899878106e+01 -6.7389090170682337e+01
 -6.7358706624322039e+01 -5.2525259691031479e+01 -5.2560082608318623e+01 -5.2532882394448166e+01 -5.2567724819543812e+01 -8.2237830920543260e+01 -8.2238186948955260e+01 -8.2239049372102713e+01 -8.2333191054481517e+01 -8.2333547448006584e+01
 -8.2334410761543339e+01 -8.2239915965165778e+01 -8.2240276165648723e+01 -8.2335278256937315e+01 -8.2335638834538926e+01 -6.7417499083234105e+01 -6.7467239167684511e+01 -6.7468973241076583e+01 -6.7419216672752711e+01 -6.7473197885566023e+01
 -6.7423400739165501e+01 -5.2564420908562006e+01 -5.2571520627565995e+01 -5.2625009737439932e+01 -5.2632130117528696e+01 -5.2589038553658554e+01 -5.2649698605170130e+01 -6.7527707176499135e+01 -6.7597782854624654e+01 -6.7599523852127675e+01
 -6.7529433244000458e+01 -6.7603765377274499e+01 -6.7533637922418436e+01 -5.2701019384721548e+01 -5.2708161042461157e+01 -5.2794100115526980e+01 -5.2801263649087069e+01 -5.2725781652372390e+01 -5.2818938125446053e+01 -6.7477478239905963e+01
 -6.7427639369349606e+01 -6.7479268078827744e+01 -6.7429411576368622e+01 -5.2607116670796103e+01 -5.2667828188760915e+01 -5.2614777586714069e+01 -5.2675510677441729e+01 -6.7608062830888045e+01 -6.7537897359431881e+01 -6.7609859814129919e+01
 -6.7539678240221576e+01 -5.2743964335479951e+01 -5.2837176037560688e+01 -5.2751669090009599e+01 -5.2844904047650608e+01 -3.7465466975877298e+01 -3.7469334214321016e+01 -3.7492777267197759e+01 -3.7496666961998542e+01 -3.7481610401921913e+01
 -3.7508999821982080e+01 -3.7562257201810773e+01 -3.7566221804836587e+01 -3.7578722788244733e+01 -2.2223953235890953e+01 -2.2223806399773750e+01 -2.2248284313183056e+01 -2.2223890857076885e+01 -2.2320079300956166e+01 -2.2248158059848176e+01
 -2.2320159156685374e+01 -2.2248225022513054e+01 -2.2320185171422370e+01 -2.2225474930355020e+01 -2.2249813339839481e+01 -2.2228310693261481e+01 -2.2324751164711170e+01 -2.2252681289375719e+01 -2.2321787998273891e+01 -2.2436865529125132e+01
 -2.2589010878861629e+01 -2.2436764647248470e+01 -2.2589605023377636e+01 -2.2437005987740104e+01 -2.2589134672242654e+01 -2.2438747909787068e+01 -2.2595108707624323e+01 -2.2441937266545850e+01 -2.2591551810471888e+01 -3.7503748319113356e+01
 -3.7531205862059672e+01 -3.7537499951263683e+01 -3.7565025400384876e+01 -3.7601113125711812e+01 -3.7635106817219615e+01 -2.2233871627306300e+01 -2.2258263861079378e+01 -2.2241362476285349e+01 -2.2338042569906747e+01 -2.2265793120997024e+01
 -2.2330409624470175e+01 -2.2252058924869143e+01 -2.2276511315919198e+01 -2.2265086196631401e+01 -2.2361990398163371e+01 -2.2289575672654308e+01 -2.2348831102820593e+01 -2.2447717930086814e+01 -2.2609191802790122e+01 -2.2455556974405035e+01
 -2.2601052840566293e+01 -2.2466438669492860e+01 -2.2633768062834655e+01 -2.2479780636533505e+01 -2.2620172467311079e+01 -3.7637169634088423e+01 -3.7641232975959049e+01 -3.7653941115579173e+01 -3.7669932016729327e+01 -3.7674041144988266e+01
 -3.7686844256584422e+01 -2.2759406282674554e+01 -2.2918653857925712e+01 -2.2759245779552121e+01 -2.2920277935251523e+01 -2.2760372424297881e+01 -2.2918814811100916e+01 -2.2762586141351466e+01 -2.2927293277630497e+01 -2.2766643530796561e+01
 -2.2922727456742066e+01 -2.3033824325224138e+01 -2.3076330695939273e+01 -2.3033678403105533e+01 -2.3078438560394428e+01 -2.3035658560903506e+01 -2.3076457677357258e+01 -2.3038269341854217e+01 -2.3086194171610224e+01 -2.3043218166075444e+01
 -2.3081094115995683e+01 -3.7676541980330619e+01 -3.7710723598997781e+01 -3.7709539148557980e+01 -3.7743802392033075e+01 -2.2772756723883411e+01 -2.2942455139464816e+01 -2.2781281141083713e+01 -2.2933542766728380e+01 -2.2792333608841474e+01
 -2.2967776716029743e+01 -2.2806249728276136e+01 -2.2953541705663135e+01 -2.3049555888731543e+01 -2.3101873503275058e+01 -2.3058761183384092e+01 -2.3092550207956290e+01 -2.3069859136745425e+01 -2.3127535722975669e+01 -2.3084335576607238e+01
 -2.3112961094682753e+01 -1.4299743073636085e+01 -1.4335865223208462e+01 -1.4303424124417074e+01 -1.4340025864196789e+01 -1.4293710447568907e+01 -1.4329459752797582e+01 -1.4458305208369318e+01 -1.4453747501626514e+01 -1.4446929901777818e+01
 -6.1159629795322124e+00 -6.0922486583265139e+00 -6.1347550213061579e+00 -6.1016715777764121e+00 -6.0679954760621619e+00 -6.0733881006609218e+00 -6.2512129652231785e+00 -6.2130269514053591e+00 -6.1807681947684046e+00 -1.4289134512125750e+01
 -1.4324731694783685e+01 -1.4287292625734942e+01 -1.4322860566604680e+01 -1.4442038602036231e+01 -1.4440187684272937e+01 -6.0533670787521192e+00 -6.0576700741911136e+00 -6.0462313030728438e+00 -6.0503103768654576e+00 -6.1634629408417192e+00
 -6.1556577656660796e+00 -1.4666532053814327e+01 -1.4671101164278996e+01 -1.4659778524221615e+01 -1.4987400150871643e+01 -1.4983551724302028e+01 -1.4977857793486443e+01 -6.5242650849767632e+00 -6.4842824243347756e+00 -6.4496816779846133e+00
 -7.0423773935699217e+00 -7.0077272224209333e+00 -6.9763118775792448e+00 -1.4655083354091794e+01 -1.4653505383225568e+01 -1.4974083448540684e+01 -1.4973227928427722e+01 -6.4314152742201838e+00 -6.4234542421090692e+00 -6.9596026509613971e+00
 -6.9525765875057495e+00 -4.0747146435345805e+00 -4.0283972942496824e+00 -4.0632145270410929e+00 -3.9759212947028399e+00 -2.0637679497466594e+00 -1.9881281848101160e+00 -2.0124508702233146e+00 -1.8096169604508718e+00 -1.8174621935590460e-01
 -9.1552177759902764e-02 -1.0374477512656344e-01 3.2013506714053974e-01 4.2206129349596144e-01 4.2229237947063097e-01 4.2226374260955513e-01 4.3832621306139630e-01 -3.9982745627133487e+00 -3.9372805036489305e+00 -1.9565246238586635e+00
 -1.7665330073933680e+00 -7.0271356051549994e-02 3.3635245775577116e-01 4.2234232995733195e-01 4.3834985053933206e-01 -4.1487651625991671e+00 -4.0487106070934722e+00 -2.0603575280974118e+00 -1.8346897048901218e+00 -1.1917781286424189e-01