DF-ISE text

Info {
  version = 1.0
  type    = dataset
  dimension   = 3
  nb_vertices = 5293
  nb_edges    = 23303
  nb_faces    = 30690
  nb_elements = 12980
  nb_regions  = 3
  datasets    = [ "ElectrostaticPotential" "ContactExternalVoltage" "ContactCurrentFlux" "ContactCharge" "eQuasiFermiPotential" "hQuasiFermiPotential" "QuasiFermiPotential" "LatticeTemperature" ]
  functions   = [ ElectrostaticPotential ContactExternalVoltage ContactCurrentFlux ContactCharge eQuasiFermiPotential hQuasiFermiPotential QuasiFermiPotential LatticeTemperature ]
}

Data {

  Dataset ("ElectrostaticPotential") {
    function  = ElectrostaticPotential
    type      = scalar
    dimension = 1
    location  = vertex
    validity  = [ "substrate" ]
    Values (5293) {
 -5.0037888985310786e+02 -5.0037067152391921e+02 -5.0037888985310786e+02 -5.0037888985310786e+02 -5.0037067207173891e+02 -5.0037067166086786e+02 -5.0039459903196257e+02 -5.0038638155161425e+02 -5.0035550435766197e+02 -5.0035550556252554e+02
 -5.0035550464732114e+02 -5.0037121854129492e+02 -5.0032196349794702e+02 -5.0032221331498687e+02 -5.0032200474180058e+02 -5.0033904284885733e+02 -4.9967146695856383e+02 -4.9977486103335588e+02 -4.9968828447476056e+02 -5.0025507547114387e+02
 -4.9782091626192994e+02 -4.9797419173179014e+02 -4.9784301071075464e+02 -4.9831572644167301e+02 -4.9589690155916230e+02 -4.9606694329825768e+02 -4.9591811941267162e+02 -4.9627166946726288e+02 -4.9396306373669330e+02 -4.9413437372897056e+02
 -4.9398125029920215e+02 -4.9424003396183184e+02 -5.0037888985310786e+02 -5.0037067166087206e+02 -5.0039459903196257e+02 -5.0038638168855238e+02 -5.0035550465088448e+02 -5.0037121880956005e+02 -5.0032201126508380e+02 -5.0033904644491446e+02
 -4.9969102800788227e+02 -5.0025722457170315e+02 -4.9784803037314265e+02 -4.9833967070003411e+02 -4.9592449394657467e+02 -4.9630113667847138e+02 -4.9398827841796083e+02 -4.9426852032272325e+02 -4.7820880485148876e+02 -4.7826201859838227e+02
 -4.7821127923684969e+02 -4.7827027422170772e+02 -4.7821243996479546e+02 -4.7827385304458107e+02 -5.0037888985310786e+02 -5.0037067207174533e+02 -5.0039459903196257e+02 -5.0038638158585036e+02 -5.0035550557769449e+02 -5.0037121860860384e+02
 -5.0032224116964204e+02 -5.0033904461508564e+02 -4.9978669435538944e+02 -5.0025637952181233e+02 -4.9799786410250749e+02 -4.9833818592563244e+02 -4.9610087501936511e+02 -4.9630842782282878e+02 -4.9417650060260064e+02 -4.9428670343024510e+02
 -5.0039459903196257e+02 -5.0038638172278883e+02 -5.0037121887683696e+02 -5.0033904808948074e+02 -5.0025842222353549e+02 -4.9836277809263055e+02 -4.9633924588444353e+02 -4.9431704730019641e+02 -4.7829494141456820e+02 -4.7830393940906453e+02
 -4.7830787712481060e+02 -5.0037888985310786e+02 -5.0037067166086717e+02 -5.0039459903196257e+02 -5.0038638153668933e+02 -5.0035550464613510e+02 -5.0037121851200817e+02 -5.0032200256483816e+02 -5.0033904229597835e+02 -4.9968736886600749e+02
 -5.0025470627028778e+02 -4.9784125307461466e+02 -4.9831094895727028e+02 -4.9591569940904617e+02 -4.9626484123963161e+02 -4.9397835055864539e+02 -4.9423231554433028e+02 -5.0037888985310786e+02 -5.0037067150899270e+02 -5.0037717774777701e+02
 -5.0036895992167200e+02 -5.0035550432424634e+02 -5.0035379276537969e+02 -5.0032195562049048e+02 -5.0032024787467441e+02 -4.9966822006619043e+02 -4.9971089697032022e+02 -4.9781603635572839e+02 -4.9792626478771308e+02 -4.9589134357535391e+02
 -4.9603379669833845e+02 -4.9395729757204577e+02 -4.9411243825484263e+02 -4.7820988765104920e+02 -4.7826787475128953e+02 -4.7820666480623095e+02 -4.7825794628882562e+02 -5.0039459903196257e+02 -5.0038638157092538e+02 -5.0037121857931652e+02
 -5.0033904406146809e+02 -5.0025600966391789e+02 -4.9833299391537753e+02 -4.9630087653619876e+02 -4.9427804450952806e+02 -5.0037717774777701e+02 -5.0036895991363082e+02 -5.0035379276543159e+02 -5.0032027470580095e+02 -4.9972138329256398e+02
 -4.9794798369566854e+02 -4.9606559001143427e+02 -4.9415243229581222e+02 -4.7830115483505739e+02 -4.7829024955921363e+02 -4.6231347018995621e+02 -4.6232905621244493e+02 -4.6231371963480734e+02 -4.6232969828221155e+02 -4.6231377431961482e+02
 -4.6232995003247584e+02 -4.4637011471745654e+02 -4.4637514159458368e+02 -4.4637012857087586e+02 -4.4637518160839380e+02 -4.4637010218394420e+02 -4.4637516634511690e+02 -4.6234560470159948e+02 -4.6234632573544724e+02 -4.6234660652914488e+02
 -4.4638268050761263e+02 -4.4638272661948491e+02 -4.4638270944369862e+02 -4.6231327946888388e+02 -4.6232908845407292e+02 -4.6231283311952012e+02 -4.6232815163838671e+02 -4.4637000610489406e+02 -4.4637503150765787e+02 -4.4636994039552764e+02
 -4.4637492668664038e+02 -4.6234561583246267e+02 -4.6234455272853683e+02 -4.4638255382292880e+02 -4.4638243307968185e+02 -5.0037888985310786e+02 -5.0037067207174590e+02 -5.0039459903196257e+02 -5.0038638158585047e+02 -5.0035550558071395e+02
 -5.0037121860864954e+02 -5.0032224671943908e+02 -5.0033904478184888e+02 -4.9978905413953959e+02 -5.0025652758627092e+02 -4.9800273715513333e+02 -4.9834176592414212e+02 -4.9610819231062732e+02 -4.9631511417683998e+02 -4.9418601964869816e+02
 -4.9429607581913814e+02 -5.0039459903196257e+02 -5.0038638172278894e+02 -5.0037121887687675e+02 -5.0033904823471084e+02 -5.0025855147643500e+02 -4.9836630127093855e+02 -4.9634589928478471e+02 -4.9432642822633687e+02 -4.7830880460048803e+02
 -4.7831784216543480e+02 -4.7832178844943394e+02 -5.0037888985310786e+02 -5.0037067207174596e+02 -5.0039459903196257e+02 -5.0038638158585047e+02 -5.0035550558122884e+02 -5.0037121860865699e+02 -5.0032224766570982e+02 -5.0033904480931375e+02
 -4.9978945656479738e+02 -5.0025655197233215e+02 -4.9800357323193089e+02 -4.9834235852833359e+02 -4.9610946163312428e+02 -4.9631623711441483e+02 -4.9418769505604064e+02 -4.9429767774888251e+02 -5.0039459903196257e+02 -5.0038638172278894e+02
 -5.0037121887688318e+02 -5.0033904825821833e+02 -5.0025857240025528e+02 -4.9836687485638663e+02 -4.9634699951073287e+02 -4.9432800860188877e+02 -4.7831198442592500e+02 -4.7832101897368153e+02 -4.7832495993441557e+02 -5.0039459903196257e+02
 -5.0038638157092544e+02 -5.0037121857936222e+02 -5.0033904422815237e+02 -5.0025615763577110e+02 -4.9833652087203734e+02 -4.9630746446474313e+02 -4.9428728195675365e+02 -5.0037717774777701e+02 -5.0036895991363144e+02 -5.0035379276886300e+02
 -5.0032028055443874e+02 -4.9972366452418896e+02 -4.9795270823129403e+02 -4.9607270299216435e+02 -4.9416170535658222e+02 -4.7831496299423225e+02 -4.7830397152022658e+02 -5.0039459903196257e+02 -5.0038638157092544e+02 -5.0037121857936972e+02
 -5.0033904425574468e+02 -5.0025618213043742e+02 -4.9833710745143162e+02 -4.9630857593414072e+02 -4.9428886784932416e+02 -5.0037717774777701e+02 -5.0036895991363156e+02 -5.0035379276945753e+02 -5.0032028156775903e+02 -4.9972405983161207e+02
 -4.9795352999530178e+02 -4.9607395142194935e+02 -4.9416335432770273e+02 -4.7831812342152512e+02 -4.7830712757534349e+02 -4.6235511919394901e+02 -4.6235584638521567e+02 -4.6235612227108936e+02 -4.4638790140815206e+02 -4.4638794750882602e+02
 -4.4638792735049321e+02 -4.6235749532841226e+02 -4.6235822214634368e+02 -4.6235849561023815e+02 -4.4638918597628651e+02 -4.4638923182568578e+02 -4.4638921070912005e+02 -4.6235510264172638e+02 -4.6235401860101229e+02 -4.4638776498569251e+02
 -4.4638764015688110e+02 -4.6235747119491509e+02 -4.6235638446827687e+02 -4.4638904689832509e+02 -4.4638892131730256e+02 -4.3040174144840131e+02 -4.3040354161540836e+02 -4.3040173917828093e+02 -4.3040354085501508e+02 -4.3040172727969582e+02
 -4.3040352880311951e+02 -4.1441493278352408e+02 -4.1441558406279898e+02 -4.1441493172321714e+02 -4.1441558301561139e+02 -4.1441492865893741e+02 -4.1441557977467301e+02 -4.3040685221623181e+02 -4.3040685156159600e+02 -4.3040683811604248e+02
 -4.1441694082174911e+02 -4.1441693968671626e+02 -4.1441693611595548e+02 -4.3040170724289243e+02 -4.3040350437000990e+02 -4.3040169620199788e+02 -4.3040348985250881e+02 -4.1441492492144516e+02 -4.1441557560336378e+02 -4.1441492316010221e+02
 -4.1441557357285058e+02 -4.3040681024288097e+02 -4.3040679358840708e+02 -4.1441693146010755e+02 -4.1441692917874872e+02 -3.8239287352747618e+02 -3.8239301795308330e+02 -3.8239287340811131e+02 -3.8239301782936587e+02 -3.8239287310424447e+02
 -3.8239301751043138e+02 -3.8239334287913022e+02 -3.8239334274566357e+02 -3.8239334239991297e+02 -3.8239287277881238e+02 -3.8239301716386223e+02 -3.8239287263737378e+02 -3.8239301701173702e+02 -3.8239334202206601e+02 -3.8239334185560284e+02
 -4.3040939793448268e+02 -4.3040939702665418e+02 -4.3040938259002610e+02 -4.1441804514618389e+02 -4.1441804393238800e+02 -4.1441804013781984e+02 -4.3040994700724048e+02 -4.3040994599683074e+02 -4.3040993125584589e+02 -4.1441821061692269e+02
 -4.1441820937607883e+02 -4.1441820551024881e+02 -4.3040935322292569e+02 -4.3040933578677243e+02 -4.1441803521233436e+02 -4.1441803280504007e+02 -4.3040990150621820e+02 -4.3040988388742130e+02 -4.1441820050521892e+02 -4.1441819806246235e+02
 -3.8239362556380269e+02 -3.8239362542275200e+02 -3.8239362505756810e+02 -3.8239367416960800e+02 -3.8239367402592313e+02 -3.8239367365415103e+02 -3.8239362465873023e+02 -3.8239362448310067e+02 -3.8239367324840492e+02 -3.8239367306981825e+02
 -3.5031024970023134e+02 -3.5031032081464571e+02 -3.5031024968860442e+02 -3.5031032080257910e+02 -3.5031024965999654e+02 -3.5031032077289012e+02 -3.5031050518698652e+02 -3.5031050517412058e+02 -3.5031050514241844e+02 -3.5031024963062066e+02
 -3.5031032074231581e+02 -3.5031024961816786e+02 -3.5031032072936318e+02 -3.5031050510970920e+02 -3.5031050509583793e+02 -3.1816764428081393e+02 -3.1816775798186313e+02 -3.1816764427967428e+02 -3.1816775798065112e+02 -3.1816764427684876e+02
 -3.1816775797773147e+02 -3.1816807779682341e+02 -3.1816807779554608e+02 -3.1816807779247347e+02 -3.1816764427390257e+02 -3.1816775797471513e+02 -3.1816764427258863e+02 -3.1816775797341109e+02 -3.1816807778930485e+02 -3.1816807778794032e+02
 -3.5031073382455611e+02 -3.5031073381105125e+02 -3.5031073377777091e+02 -3.5031093341018828e+02 -3.5031093339643991e+02 -3.5031093336256311e+02 -3.5031073374343350e+02 -3.5031073372887317e+02 -3.5031093332761674e+02 -3.5031093331280056e+02
 -3.1816854567639956e+02 -3.1816854567506749e+02 -3.1816854567186203e+02 -3.1816908125880019e+02 -3.1816908125743282e+02 -3.1816908125414142e+02 -3.1816854566855926e+02 -3.1816854566713914e+02 -3.1816908125075105e+02 -3.1816908124929444e+02
 -2.8596471617763086e+02 -2.8596495762057521e+02 -2.8596471617763279e+02 -2.8596495762053331e+02 -2.8596471617757510e+02 -2.8596495762044873e+02 -2.8596564507738680e+02 -2.8596564507733461e+02 -2.8596564507723218e+02 -2.8596471617741491e+02
 -2.8596495762028866e+02 -2.8596471617725751e+02 -2.8596495762016980e+02 -2.8596564507705841e+02 -2.8596564507693745e+02 -2.5370044335604655e+02 -2.5370096003061568e+02 -2.5370044335809536e+02 -2.5370096003262441e+02 -2.5370044336297738e+02
 -2.5370096003748483e+02 -2.5370243473029481e+02 -2.5370243473229650e+02 -2.5370243473714680e+02 -2.5370044336775584e+02 -2.5370096004226843e+02 -2.5370044336964085e+02 -2.5370096004419253e+02 -2.5370243474192444e+02 -2.5370243474384972e+02
 -2.8596667364788578e+02 -2.8596667364782428e+02 -2.8596667364769979e+02 -2.8596788655465696e+02 -2.8596788655457556e+02 -2.8596788655440253e+02 -2.8596667364750414e+02 -2.8596667364737453e+02 -2.8596788655415725e+02 -2.8596788655400690e+02
 -2.5370465110167467e+02 -2.5370465110366422e+02 -2.5370465110848585e+02 -2.5370728011543915e+02 -2.5370728011739260e+02 -2.5370728012212646e+02 -2.5370465111323509e+02 -2.5370465111514898e+02 -2.5370728012678683e+02 -2.5370728012866385e+02
 -5.0037888985310786e+02 -5.0037067207174579e+02 -5.0039459903196257e+02 -5.0038638158585047e+02 -5.0035550558047458e+02 -5.0037121860864607e+02 -5.0032224627942065e+02 -5.0033904476908543e+02 -4.9978886701099333e+02 -5.0025651625342817e+02
 -4.9800234608747377e+02 -4.9834149054651289e+02 -4.9610759236085073e+02 -4.9631458778002019e+02 -4.9418521555324293e+02 -4.9429531407489918e+02 -5.0039459903196257e+02 -5.0038638172278894e+02 -5.0037121887687385e+02 -5.0033904822384557e+02
 -5.0025854180510032e+02 -4.9836603615034954e+02 -4.9634538615931280e+02 -4.9432568029735592e+02 -4.7830681313746300e+02 -4.7831585498372135e+02 -4.7831980377270901e+02 -5.0037888985310786e+02 -5.0037067207174510e+02 -5.0039459903196257e+02
 -5.0038638158585036e+02 -5.0035550557682842e+02 -5.0037121860859151e+02 -5.0032223957802796e+02 -5.0033904457001677e+02 -4.9978601771984540e+02 -5.0025633950996593e+02 -4.9799647279920873e+02 -4.9833722326423174e+02 -4.9609878356414220e+02
 -4.9630661316229032e+02 -4.9417376107246270e+02 -4.9428412547785319e+02 -5.0039459903196257e+02 -5.0038638172278883e+02 -5.0037121887682656e+02 -5.0033904805131579e+02 -5.0025838825522106e+02 -4.9836185403278989e+02 -4.9633748137311159e+02
 -4.9431452156920881e+02 -4.7828984063436923e+02 -4.7829885430642236e+02 -4.7830280093595002e+02 -5.0039459903196257e+02 -5.0038638157092544e+02 -5.0037121857935864e+02 -5.0033904421518724e+02 -5.0025614612621263e+02 -4.9833624535321752e+02
 -4.9630693795374737e+02 -4.9428652012003960e+02 -5.0037717774777701e+02 -5.0036895991363144e+02 -5.0035379276858140e+02 -5.0032028007457268e+02 -4.9972347732412618e+02 -4.9795231707622435e+02 -4.9607210294812893e+02 -4.9416090116498941e+02
 -4.7831297578370800e+02 -4.7830198001899629e+02 -5.0039459903196257e+02 -5.0038638157092538e+02 -5.0037121857930401e+02 -5.0033904401568475e+02 -5.0025596902617525e+02 -4.9833203073637765e+02 -4.9629906145100858e+02 -4.9427546621238110e+02
 -5.0037717774777701e+02 -5.0036895991363065e+02 -5.0035379276441296e+02 -5.0032027296999996e+02 -4.9972070639340183e+02 -4.9794659206890975e+02 -4.9606349820892291e+02 -4.9414969241436262e+02 -4.7829606964070314e+02 -4.7828514865931271e+02
 -4.6235302396703423e+02 -4.6235375161056589e+02 -4.6235402783721401e+02 -4.4638618015127088e+02 -4.4638622630032103e+02 -4.4638620618291998e+02 -4.6234093289574372e+02 -4.6234165547305150e+02 -4.6234193739907516e+02 -4.4637913989268753e+02
 -4.4637918615752960e+02 -4.4637916910880051e+02 -4.6235300785834818e+02 -4.6235192336193427e+02 -4.4638604377448911e+02 -4.4638591889619283e+02 -4.6234094554548091e+02 -4.6233988088853619e+02 -4.4637901335355292e+02 -4.4637889245422400e+02
 -5.0037888985310786e+02 -5.0037067206427480e+02 -5.0039459903196257e+02 -5.0038638154788276e+02 -5.0035550554314784e+02 -5.0037121853392176e+02 -5.0032220447178196e+02 -5.0033904252643322e+02 -4.9977113766388527e+02 -5.0025482066239897e+02
 -4.9796744204477216e+02 -4.9831111503149390e+02 -4.9605781305178306e+02 -4.9626379585902106e+02 -4.9412338685484815e+02 -4.9422967867658616e+02 -5.0039459903196257e+02 -5.0038638168482095e+02 -5.0037121880219826e+02 -5.0033904616334320e+02
 -5.0025700554592140e+02 -4.9833522162184090e+02 -4.9629345283632654e+02 -4.9425834385247731e+02 -4.7825089285635704e+02 -4.7825919626299611e+02 -4.7826279950424498e+02 -5.0037717774777701e+02 -5.0036895927450917e+02 -5.0037717774777701e+02
 -5.0036895942220639e+02 -5.0035379132016323e+02 -5.0035379163496810e+02 -5.0031993688176613e+02 -5.0031998226082158e+02 -4.9959290251653357e+02 -4.9960983648834525e+02 -4.9775037345975448e+02 -4.9777261251663759e+02 -4.9583714778075154e+02
 -4.9585850099863342e+02 -4.9391261831380422e+02 -4.9393091856872138e+02 -5.0037717774777701e+02 -5.0036895942221116e+02 -5.0035379163919771e+02 -5.0031998944193430e+02 -4.9961260001410642e+02 -4.9777766750694883e+02 -4.9586491984126701e+02
 -4.9393799530845786e+02 -4.7818797022103462e+02 -4.7819046031631643e+02 -4.7819163111091177e+02 -5.0039459903196257e+02 -5.0038638153295784e+02 -5.0037121850463370e+02 -5.0033904196905638e+02 -5.0025444751837296e+02 -4.9830633478843038e+02
 -4.9625696572336165e+02 -4.9422195899561495e+02 -5.0037717774777701e+02 -5.0036895991362195e+02 -5.0035379274401288e+02 -5.0032023823142561e+02 -4.9970717238278024e+02 -4.9791951378947721e+02 -4.9602466520292700e+02 -4.9410145025283640e+02
 -4.7825679656889128e+02 -4.7824682026773780e+02 -5.0037717774777701e+02 -5.0036895942220553e+02 -5.0035379163356953e+02 -5.0031997988067116e+02 -4.9960892049750174e+02 -4.9777085442646387e+02 -4.9585608052588373e+02 -4.9392801837013758e+02
 -5.0037717774777701e+02 -5.0036895925841083e+02 -5.0035379128369482e+02 -5.0031992826950784e+02 -4.9958965493767244e+02 -4.9774549289693374e+02 -4.9583158916881848e+02 -4.9390685155279630e+02 -4.7818906856970648e+02 -4.7818582994406449e+02
 -4.6232109326357050e+02 -4.6232173921664969e+02 -4.6232199362698782e+02 -4.4636982357283568e+02 -4.4636986391929275e+02 -4.4636984892087025e+02 -4.6230270289855082e+02 -4.6230295417683999e+02 -4.6230301027679690e+02 -4.4636379141542221e+02
 -4.4636380546703055e+02 -4.4636377924360647e+02 -4.6232112933781229e+02 -4.6232018861883540e+02 -4.4636971380196621e+02 -4.4636960864031408e+02 -4.6230251395118893e+02 -4.6230206573178509e+02 -4.4636368296863856e+02 -4.4636361703486239e+02
 -4.3040814836180346e+02 -4.3040814745903725e+02 -4.3040813302677498e+02 -4.1441722067065160e+02 -4.1441721945716586e+02 -4.1441721566273350e+02 -4.3040439961744391e+02 -4.3040439897766146e+02 -4.3040438554468039e+02 -4.1441536837692826e+02
 -4.1441536724265785e+02 -4.1441536367201678e+02 -4.3040810365430002e+02 -4.3040808621266314e+02 -4.1441721073657044e+02 -4.1441720832873733e+02 -4.3040435765579531e+02 -4.3040434098507893e+02 -4.1441535901398129e+02 -4.1441535673091641e+02
 -3.8239342175643310e+02 -3.8239342161531192e+02 -3.8239342124993317e+02 -3.8239295851340700e+02 -3.8239295837964596e+02 -3.8239295803308465e+02 -3.8239342085086156e+02 -3.8239342067512058e+02 -3.8239295765422423e+02 -3.8239295748721236e+02
 -4.3040009373404052e+02 -4.3040009300226586e+02 -4.3040008097314268e+02 -4.1441345438572080e+02 -4.1441345333942587e+02 -4.1441345009722414e+02 -4.3039784999256153e+02 -4.3039784774101599e+02 -4.3039783585317434e+02 -4.1441258587925341e+02
 -4.1441258481804772e+02 -4.1441258174713113e+02 -4.3040005650799310e+02 -4.3040004195678563e+02 -4.1441344591961285e+02 -4.1441344388380872e+02 -4.3039781578003306e+02 -4.3039780469683370e+02 -4.1441257799236467e+02 -4.1441257620860029e+02
 -3.8239250465086167e+02 -3.8239250452613112e+02 -3.8239250420425412e+02 -3.8239231239352438e+02 -3.8239231227174093e+02 -3.8239231195989441e+02 -3.8239250385341899e+02 -3.8239250369804324e+02 -3.8239231161883731e+02 -3.8239231145618044e+02
 -3.5031105769159831e+02 -3.5031105767801245e+02 -3.5031105764453002e+02 -3.5031110242309416e+02 -3.5031110240990574e+02 -3.5031110237737198e+02 -3.5031105760997627e+02 -3.5031105759531931e+02 -3.5031110234369180e+02 -3.5031110232930877e+02
 -3.1816959921240976e+02 -3.1816959921099613e+02 -3.1816959920758774e+02 -3.1817002430717491e+02 -3.1817002430557375e+02 -3.1817002430166804e+02 -3.1816959920406862e+02 -3.1816959920255221e+02 -3.1817002429752904e+02 -3.1817002429565360e+02
 -3.5031109950447774e+02 -3.5031109949134981e+02 -3.5031109945868201e+02 -3.5031109177186204e+02 -3.5031109175777544e+02 -3.5031109172115436e+02 -3.5031109942390844e+02 -3.5031109940774974e+02 -3.5031109167613681e+02 -3.5031109164188621e+02
 -3.1817030098923760e+02 -3.1817030098696210e+02 -3.1817030098106210e+02 -3.1817039670286300e+02 -3.1817039669926174e+02 -3.1817039668841778e+02 -3.1817030097384645e+02 -3.1817030096932200e+02 -3.1817039666975381e+02 -3.1817039664598326e+02
 -2.8596909910220705e+02 -2.8596909910205954e+02 -2.8596909910172144e+02 -2.8597012678234080e+02 -2.8597012678195580e+02 -2.8597012678099935e+02 -2.8596909910129881e+02 -2.8596909910106854e+02 -2.8597012677983435e+02 -2.8597012677919395e+02
 -2.5370992529187592e+02 -2.5370992529372862e+02 -2.5370992529821356e+02 -2.5371218069500398e+02 -2.5371218069656919e+02 -2.5371218070031554e+02 -2.5370992530261285e+02 -2.5370992530437525e+02 -2.5371218070385240e+02 -2.5371218070515488e+02
 -2.8597081331271585e+02 -2.8597081331159791e+02 -2.8597081330850432e+02 -2.8597105435802763e+02 -2.8597105435555420e+02 -2.8597105434744327e+02 -2.8597081330411504e+02 -2.8597081330074934e+02 -2.8597105433146152e+02 -2.8597105430815043e+02
 -2.5371369444145893e+02 -2.5371369444224297e+02 -2.5371369444373704e+02 -2.5371422729184428e+02 -2.5371422729125095e+02 -2.5371422728767612e+02 -2.5371369444393298e+02 -2.5371369444244897e+02 -2.5371422727616545e+02 -2.5371422725402223e+02
 -2.2137262383458526e+02 -2.2137371703846145e+02 -2.2137262385873993e+02 -2.2137371706258691e+02 -2.2137262391699016e+02 -2.2137371712083768e+02 -2.2137684439484690e+02 -2.2137684441897329e+02 -2.2137684447723322e+02 -2.2137262397513823e+02
 -2.2137371717901286e+02 -2.2137262399912692e+02 -2.2137371720304841e+02 -2.2137684453542161e+02 -2.2137684455946635e+02 -1.8897664460837612e+02 -1.8897892336380139e+02 -1.8897664488176827e+02 -1.8897892363734675e+02 -1.8897664554180574e+02
 -1.8897892429782181e+02 -1.8898546825276478e+02 -1.8898546852661400e+02 -1.8898546918782972e+02 -1.8897664620184875e+02 -1.8897892495832903e+02 -1.8897664647517911e+02 -1.8897892523188597e+02 -1.8898546984908228e+02 -1.8898547012295177e+02
 -2.2138156468476359e+02 -2.2138156470883067e+02 -2.2138156476694797e+02 -2.2138719572554791e+02 -2.2138719574939836e+02 -2.2138719580699225e+02 -2.2138156482499409e+02 -2.2138156484898022e+02 -2.2138719586451376e+02 -2.2138719588828252e+02
 -1.8899542119379026e+02 -1.8899542146735874e+02 -1.8899542212789754e+02 -1.8900741522506246e+02 -1.8900741549667350e+02 -1.8900741615248606e+02 -1.8899542278847377e+02 -1.8899542306206362e+02 -1.8900741680833480e+02 -1.8900741707996636e+02
 -1.5650301322630474e+02 -1.5650764303800716e+02 -1.5650301630937594e+02 -1.5650764612423757e+02 -1.5650302375518979e+02 -1.5650765357775165e+02 -1.5652103777574800e+02 -1.5652104086829698e+02 -1.5652104833708734e+02 -1.5650303120472810e+02
 -1.5650766103502917e+02 -1.5650303429145328e+02 -1.5650766412499667e+02 -1.5652105580966634e+02 -1.5652105890598159e+02 -1.2393283126510201e+02 -1.2394179082189120e+02 -1.2393286598638568e+02 -1.2394182559217036e+02 -1.2393294990191387e+02
 -1.2394190962642502e+02 -1.2396806006764724e+02 -1.2396809494218998e+02 -1.2396817922873122e+02 -1.2393303394745008e+02 -1.2394199379122566e+02 -1.2393306879870914e+02 -1.2394202869206012e+02 -1.2396826364659856e+02 -1.2396829865248066e+02
 -1.5654169122418739e+02 -1.5654169431795987e+02 -1.5654170178971518e+02 -1.5656705470003683e+02 -1.5656705777683933e+02 -1.5656706520762637e+02 -1.5654170926527439e+02 -1.5654171236282883e+02 -1.5656707264221811e+02 -1.5656707572280379e+02
 -1.2400960871764725e+02 -1.2400964365860089e+02 -1.2400972810585652e+02 -1.2406245840065880e+02 -1.2406249322376044e+02 -1.2406257738667827e+02 -1.2400981268497405e+02 -1.2400984775780366e+02 -1.2406266168171274e+02 -1.2406269663694617e+02
 -9.1230448277539224e+01 -9.1246173710504323e+01 -9.1230838217616551e+01 -9.1246564370138330e+01 -9.1231782682083434e+01 -9.1247510587465641e+01 -9.1293435266890754e+01 -9.1293827469324313e+01 -9.1294777432370836e+01 -9.1232731561877813e+01
 -9.1248461240594210e+01 -9.1233125920001584e+01 -9.1248856338797182e+01 -9.1295731859603237e+01 -9.1296128528998892e+01 -7.4807107471705777e+01 -7.4812120799577755e+01 -7.4809002982939120e+01 -7.4825993233076105e+01 -7.4827893417423169e+01
 -7.4814004359507607e+01 -7.4813619545301293e+01 -7.4832521573681774e+01 -7.4818591416735103e+01 -5.8313642556469070e+01 -5.8321419134549949e+01 -5.8318702189318913e+01 -5.8326485102362327e+01 -5.8334100444869414e+01 -5.8341901539439384e+01
 -5.8340592596245358e+01 -5.8345675365701567e+01 -5.8361138467919481e+01 -7.4850280026444239e+01 -7.4884121063922976e+01 -7.4886030467934290e+01 -7.4852171385675646e+01 -7.4890681195346474e+01 -7.4856777657745823e+01 -5.8360680300491481e+01
 -5.8368502282513234e+01 -5.8399498444977468e+01 -5.8407342421659635e+01 -5.8387791708646319e+01 -5.8426686226009380e+01 -7.4818294968785622e+01 -7.4837208976875587e+01 -7.4823236346334184e+01 -7.4820249411841473e+01 -7.4839168479337445e+01
 -7.4825177847607165e+01 -5.8360357881673956e+01 -5.8365459117611152e+01 -5.8380972173107480e+01 -5.8368727568551002e+01 -5.8373836812316398e+01 -5.8389371340667807e+01 -7.4895391582141315e+01 -7.4861442294476802e+01 -7.4897360716706473e+01
 -7.4863392087467076e+01 -5.8407680512629852e+01 -5.8446631096874540e+01 -5.8416103166660513e+01 -5.8455077434584830e+01 -9.1371790478532773e+01 -9.1372184014499325e+01 -9.1373137210212704e+01 -9.1478203034393772e+01 -9.1478596269886069e+01
 -9.1479548750345003e+01 -9.1374094888454664e+01 -9.1374492909751666e+01 -9.1480505727577139e+01 -9.1480903462693092e+01 -7.4929257048248132e+01 -7.4984873186832488e+01 -7.4986791259614520e+01 -7.4931157638953252e+01 -7.4991463075710101e+01
 -7.4935786407709642e+01 -5.8452043852009282e+01 -5.8459907247242612e+01 -5.8519928075438401e+01 -5.8527811423548997e+01 -5.8479298681066538e+01 -5.8547251727768128e+01 -7.5052446785669858e+01 -7.5130724726159102e+01 -7.5132646865817151e+01
 -7.5054354558216545e+01 -7.5137328677400291e+01 -7.5059000817861602e+01 -5.8605081648006902e+01 -5.8612982634743439e+01 -5.8709285579396109e+01 -5.8717201516253311e+01 -5.8632466295363521e+01 -5.8736722375475289e+01 -7.4996194772100509e+01
 -7.4940473825311386e+01 -7.4998172796981379e+01 -7.4942433134212251e+01 -5.8499292192280251e+01 -5.8567295070111015e+01 -5.8507758963345651e+01 -5.8575782762319953e+01 -7.5142070617054827e+01 -7.5063705938152196e+01 -7.5144052957970445e+01
 -7.5065672641682823e+01 -5.8652554056430809e+01 -5.8756848875676795e+01 -5.8661060460631163e+01 -5.8765371785397519e+01 -4.1702634548769709e+01 -4.1706812378612184e+01 -4.1732866604187834e+01 -4.1737081161785163e+01 -4.1720219094817502e+01
 -4.1750575697153465e+01 -4.1809682792150610e+01 -4.1814010624848841e+01 -4.1827754297350431e+01 -2.4798915973485020e+01 -2.4798997129203908e+01 -2.4825952343566907e+01 -2.4798200779649115e+01 -2.4905910947699912e+01 -2.4826051425954386e+01
 -2.4905193493534469e+01 -2.4825253465264698e+01 -2.4905807471028314e+01 -2.4799119597759859e+01 -2.4826195074782994e+01 -2.4801435871232073e+01 -2.4908777608931651e+01 -2.4828566707165105e+01 -2.4906239727358198e+01 -2.5035186188291714e+01
 -2.5203596008160485e+01 -2.5035257789603030e+01 -2.5203742255114673e+01 -2.5034851371139659e+01 -2.5203594791541509e+01 -2.5036132164057868e+01 -2.5208813390823206e+01 -2.5039024258285281e+01 -2.5205387042172525e+01 -4.1744698157681043e+01
 -4.1775152413718352e+01 -4.1782361557353092e+01 -4.1812902914270161e+01 -4.1852589737437619e+01 -4.1890561835873761e+01 -2.4806917071657320e+01 -2.4834088712698296e+01 -2.4814742673863421e+01 -2.4922467922517036e+01 -2.4841970096372677e+01
 -2.4914433149564790e+01 -2.4826355506715743e+01 -2.4853615540949704e+01 -2.4840780654612352e+01 -2.4948807142868130e+01 -2.4868087040674627e+01 -2.4934215398961690e+01 -2.5044895322472428e+01 -2.5223691847944014e+01 -2.5053219103026233e+01
 -2.5214963714961051e+01 -2.5065106303351310e+01 -2.5250855543557062e+01 -2.5079923086958033e+01 -2.5235732401252392e+01 -4.1892339898021774e+01 -4.1896805436269418e+01 -4.1910838981074406e+01 -4.1928435868928055e+01 -4.1932962794926503e+01
 -4.1947124950815017e+01 -2.5391347383965471e+01 -2.5566557208812934e+01 -2.5391270381547994e+01 -2.5568074439513371e+01 -2.5392143551253373e+01 -2.5566661212354465e+01 -2.5394211552175562e+01 -2.5575249500201352e+01 -2.5398311760522176e+01
 -2.5570497335225468e+01 -2.5692888927646752e+01 -2.5739538549239210e+01 -2.5692785472833023e+01 -2.5741661328644398e+01 -2.5694749969688086e+01 -2.5739626567000691e+01 -2.5697408053050289e+01 -2.5749801771618955e+01 -2.5702637538585250e+01
 -2.5744387730010022e+01 -4.1935960948809274e+01 -4.1974169296892967e+01 -4.1972372309040040e+01 -4.2010682409665442e+01 -2.5404746788192924e+01 -2.5591621565924086e+01 -2.5413971063842876e+01 -2.5581913576575982e+01 -2.5426136061350125e+01
 -2.5619734623195249e+01 -2.5441637310873009e+01 -2.5603862726352833e+01 -2.5709449507371811e+01 -2.5766858668697015e+01 -2.5719515406245659e+01 -2.5756651161861601e+01 -2.5731795241734641e+01 -2.5795397934515837e+01 -2.5747944948492329e+01
 -2.5779136291611366e+01 -1.6012934846498375e+01 -1.6053360920146510e+01 -1.6017930692421995e+01 -1.6058898183080636e+01 -1.6003888646329614e+01 -1.6043848691800044e+01 -1.6191180884214727e+01 -1.6185269205612538e+01 -1.6175411260886914e+01
 -6.9453777390708478e+00 -6.9160331885124755e+00 -6.9670688430580743e+00 -6.9270271521731068e+00 -6.8808480731930093e+00 -6.8858288756291746e+00 -7.0999167704378960e+00 -7.0542079656924743e+00 -7.0079597772161790e+00 -1.5996176125453326e+01
 -1.6035959360758458e+01 -1.5991914631803064e+01 -1.6031688855121285e+01 -1.6167491735236936e+01 -1.6163388090464554e+01 -6.8574493028894743e+00 -6.8605384293881979e+00 -6.8449339845184394e+00 -6.8476081399522233e+00 -6.9808463776063663e+00
 -6.9675650380505267e+00 -1.6422826161099742e+01 -1.6428492115454905e+01 -1.6413524383908445e+01 -1.6778980253625896e+01 -1.6774408743156936e+01 -1.6766991623247154e+01 -7.4106330900082780e+00 -7.3651935603904191e+00 -7.3189410777210915e+00
 -7.9887134995729934e+00 -7.9512704341312750e+00 -7.9136307094361493e+00 -1.6406254230463162e+01 -1.6402766722588275e+01 -1.6761399892832920e+01 -1.6759173628706467e+01 -7.2919996873364834e+00 -7.2791161349612077e+00 -7.8916538354977446e+00
 -7.8813302044914559e+00 -4.6862704096999694e+00 -4.6311797731294684e+00 -4.6741547077401115e+00 -4.5730556860195497e+00 -2.4621591588449427e+00 -2.3743137041932854e+00 -2.4055594680946557e+00 -2.1764626027812324e+00 -3.7571702167990900e-01
 -2.7246122884872281e-01 -2.8894899319777989e-01 1.8639215390218339e-01 4.2159672361283490e-01 4.2186406712702440e-01 4.2182458817121660e-01 4.3817044529754273e-01 -4.5859595619024791e+00 -4.5126686065932695e+00 -2.3239022420566364e+00
 -2.0976443200400796e+00 -2.3326940846603655e-01 2.6220498967738692e-01 4.2195767953896035e-01 4.3826369885505689e-01 -4.7725331034099439e+00 -4.6564076731600457e+00 -2.4610006129554605e+00 -2.2029227639245388e+00 -3.0598160931760687e-01