DF-ISE text

Info {
  version = 1.0
  type    = dataset
  dimension   = 3
  nb_vertices = 5293
  nb_edges    = 23303
  nb_faces    = 30690
  nb_elements = 12980
  nb_regions  = 3
  datasets    = [ "ElectrostaticPotential" "ContactExternalVoltage" "ContactCurrentFlux" "ContactCharge" "eQuasiFermiPotential" "hQuasiFermiPotential" "QuasiFermiPotential" "LatticeTemperature" ]
  functions   = [ ElectrostaticPotential ContactExternalVoltage ContactCurrentFlux ContactCharge eQuasiFermiPotential hQuasiFermiPotential QuasiFermiPotential LatticeTemperature ]
}

Data {

  Dataset ("ElectrostaticPotential") {
    function  = ElectrostaticPotential
    type      = scalar
    dimension = 1
    location  = vertex
    validity  = [ "substrate" ]
    Values (5293) {
 -4.2537888985310786e+02 -4.2537067152398356e+02 -4.2537888985310786e+02 -4.2537888985310786e+02 -4.2537067207179246e+02 -4.2537067166093044e+02 -4.2539459903196263e+02 -4.2538638155161465e+02 -4.2535550470366309e+02 -4.2535550585061713e+02
 -4.2535550498365455e+02 -4.2537121854493421e+02 -4.2532259939758075e+02 -4.2532274284494804e+02 -4.2532262288797722e+02 -4.2533905619807427e+02 -4.2494226727175999e+02 -4.2500237529613662e+02 -4.2495191096902414e+02 -4.2526691744317674e+02
 -4.2336415368226506e+02 -4.2345508655984798e+02 -4.2337716846229176e+02 -4.2366183588285185e+02 -4.2171565925104613e+02 -4.2181724272243957e+02 -4.2172825750206061e+02 -4.2194145720819995e+02 -4.2006055847126083e+02 -4.2016328628038838e+02
 -4.2007139455522594e+02 -4.2022727886371763e+02 -4.2537888985310786e+02 -4.2537067166093436e+02 -4.2539459903196263e+02 -4.2538638168855277e+02 -4.2535550498557058e+02 -4.2537121881276170e+02 -4.2532262638411879e+02 -4.2533905820408904e+02
 -4.2495342170935567e+02 -4.2526768434105486e+02 -4.2337994731886619e+02 -4.2367571300690230e+02 -4.2173177434643605e+02 -4.2195858424731898e+02 -4.2007524644240237e+02 -4.2024372666322125e+02 -4.0664642803543529e+02 -4.0667831966321120e+02
 -4.0664784254201896e+02 -4.0668321487823982e+02 -4.0664831381396050e+02 -4.0668502489876755e+02 -4.2537888985310786e+02 -4.2537067207179774e+02 -4.2539459903196263e+02 -4.2538638158585064e+02 -4.2535550585940035e+02 -4.2537121861198426e+02
 -4.2532275896311296e+02 -4.2533905701896123e+02 -4.2500938202103043e+02 -4.2526739066312831e+02 -4.2346916144764629e+02 -4.2367508087645064e+02 -4.2183746364783923e+02 -4.2196333205074558e+02 -4.2018842372773668e+02 -4.2025513090239878e+02
 -4.2539459903196263e+02 -4.2538638172278911e+02 -4.2537121887980794e+02 -4.2533905900598086e+02 -4.2526814168471208e+02 -4.2368933209584952e+02 -4.2198121008161638e+02 -4.2027260046946151e+02 -4.0669790966103290e+02 -4.0670323546287301e+02
 -4.0670520404110022e+02 -4.2537888985310786e+02 -4.2537067166092987e+02 -4.2539459903196263e+02 -4.2538638153668973e+02 -4.2535550498251052e+02 -4.2537121851569367e+02 -4.2532262078833674e+02 -4.2533905581217135e+02 -4.2495100357147277e+02
 -4.2526669370401760e+02 -4.2337542317298193e+02 -4.2365716395222472e+02 -4.2172585180698024e+02 -4.2193470511573696e+02 -4.2006850993572624e+02 -4.2021961382064541e+02 -4.2537888985310786e+02 -4.2537067150905716e+02 -4.2537717774777707e+02
 -4.2536895992173993e+02 -4.2535550467037888e+02 -4.2535379310380188e+02 -4.2532259175905159e+02 -4.2532082469110532e+02 -4.2493902840237854e+02 -4.2493848056612279e+02 -4.2335928664882192e+02 -4.2340722680192602e+02 -4.2171011735820537e+02
 -4.2178415717842353e+02 -4.2005481043343309e+02 -4.2014140449757468e+02 -4.0664645680161243e+02 -4.0668082618431237e+02 -4.0664429591949107e+02 -4.0667426125895076e+02 -4.2539459903196263e+02 -4.2538638157092578e+02 -4.2537121858274094e+02
 -4.2533905662391453e+02 -4.2526715886754948e+02 -4.2366999199622376e+02 -4.2195585747978305e+02 -4.2024652786077547e+02 -4.2537717774777707e+02 -4.2536895991369721e+02 -4.2535379309638040e+02 -4.2532083878417063e+02 -4.2494414139461736e+02
 -4.2341935053572143e+02 -4.2180224302372324e+02 -4.2016441320124875e+02 -4.0670046291044599e+02 -4.0669323344669891e+02 -3.9314234508887887e+02 -3.9315163975340550e+02 -3.9314246559243202e+02 -3.9315199022009813e+02 -3.9314241895080761e+02
 -3.9315203681474566e+02 -3.7960385557501394e+02 -3.7960682480379955e+02 -3.7960385475833226e+02 -3.7960683813500521e+02 -3.7960381566795240e+02 -3.7960680101269162e+02 -3.9316141251441678e+02 -3.9316180455313128e+02 -3.9316185143673084e+02
 -3.7961121801702950e+02 -3.7961123343304115e+02 -3.7961119098010045e+02 -3.9314202717971500e+02 -3.9315138284699839e+02 -3.9314171046928675e+02 -3.9315073856886568e+02 -3.7960373277175194e+02 -3.7960668862032713e+02 -3.7960368192885608e+02
 -3.7960661071954650e+02 -3.9316109743652135e+02 -3.9316036439498026e+02 -3.7961106129856205e+02 -3.7961097151987497e+02 -4.2537888985310786e+02 -4.2537067207179803e+02 -4.2539459903196263e+02 -4.2538638158585076e+02 -4.2535550586113737e+02
 -4.2537121861200137e+02 -4.2532276215578247e+02 -4.2533905708088486e+02 -4.2501077070137944e+02 -4.2526744559984445e+02 -4.2347203351598745e+02 -4.2367717066245177e+02 -4.2184177969204194e+02 -4.2196726351163301e+02 -4.2019404008302661e+02
 -4.2026065356339888e+02 -4.2539459903196263e+02 -4.2538638172278922e+02 -4.2537121887982352e+02 -4.2533905906249697e+02 -4.2526819200538472e+02 -4.2369138513932239e+02 -4.2198511119609981e+02 -4.2027811122203485e+02 -4.0670602312183644e+02
 -4.0671136721008548e+02 -4.0671332499318271e+02 -4.2537888985310786e+02 -4.2537067207179808e+02 -4.2539459903196263e+02 -4.2538638158585076e+02 -4.2535550586140812e+02 -4.2537121861200404e+02 -4.2532276265337595e+02 -4.2533905709022036e+02
 -4.2501098715671822e+02 -4.2526745388230796e+02 -4.2347248339970008e+02 -4.2367748624287475e+02 -4.2184246206701704e+02 -4.2196786502859470e+02 -4.2019493891502270e+02 -4.2026151172926120e+02 -4.2539459903196263e+02 -4.2538638172278922e+02
 -4.2537121887982590e+02 -4.2533905907086762e+02 -4.2526819945964371e+02 -4.2369169012141361e+02 -4.2198569906042894e+02 -4.2027895552615064e+02 -4.0670764372832434e+02 -4.0671298532532575e+02 -4.0671493721009841e+02 -4.2539459903196263e+02
 -4.2538638157092583e+02 -4.2537121858275776e+02 -4.2533905668477735e+02 -4.2526721285337726e+02 -4.2367202822971620e+02 -4.2195969030714110e+02 -4.2025191562257106e+02 -4.2537717774777707e+02 -4.2536895991369761e+02 -4.2535379309830296e+02
 -4.2532084206112683e+02 -4.2494545154030061e+02 -4.2342207416911737e+02 -4.2180635494458278e+02 -4.2016978386701913e+02 -4.0670850029153212e+02 -4.0670120602150888e+02 -4.2539459903196263e+02 -4.2538638157092583e+02 -4.2537121858276032e+02
 -4.2533905669401747e+02 -4.2526722104913995e+02 -4.2367233765604720e+02 -4.2196028027856806e+02 -4.2025275771571756e+02 -4.2537717774777707e+02 -4.2536895991369761e+02 -4.2535379309861003e+02 -4.2532084258462731e+02 -4.2494566085697738e+02
 -4.2342250971704459e+02 -4.2180701641226915e+02 -4.2017065626034434e+02 -4.0671010205878139e+02 -4.0670280290740681e+02 -3.9316689310676333e+02 -3.9316728650726139e+02 -3.9316732423670226e+02 -3.7961414659933041e+02 -3.7961416127659959e+02
 -3.7961411517721746e+02 -3.9316798977779143e+02 -3.9316838246376784e+02 -3.9316841740756132e+02 -3.7961462751338718e+02 -3.7961464185724520e+02 -3.7961459472086369e+02 -3.9316654564679959e+02 -3.9316579650458493e+02 -3.7961397944512385e+02
 -3.7961388632067116e+02 -3.9316763441467907e+02 -3.9316688293591017e+02 -3.7961445762866509e+02 -3.7961436383709821e+02 -3.6604458091972799e+02 -3.6604562600282611e+02 -3.6604457704830708e+02 -3.6604562272534349e+02 -3.6604456370171414e+02
 -3.6604560845108176e+02 -3.5246839384480199e+02 -3.5246875967762531e+02 -3.5246839266001143e+02 -3.5246875845440201e+02 -3.5246838948411738e+02 -3.5246875505554817e+02 -3.6604751160521602e+02 -3.6604750802596863e+02 -3.6604749199107550e+02
 -3.5246950068544606e+02 -3.5246949934506273e+02 -3.5246949558939099e+02 -3.6604454523710143e+02 -3.6604558638149012e+02 -3.6604453584878644e+02 -3.6604557443923022e+02 -3.5246838588465147e+02 -3.5246875107079597e+02 -3.5246838425872653e+02
 -3.5246874922817256e+02 -3.6604746686471350e+02 -3.6604745319972386e+02 -3.5246949114985773e+02 -3.5246948908684476e+02 -3.2526929343012222e+02 -3.2526937115676367e+02 -3.2526929330722095e+02 -3.2526937102839435e+02 -3.2526929300064666e+02
 -3.2526937070571097e+02 -3.2526953976130784e+02 -3.2526953962239128e+02 -3.2526953927217482e+02 -3.2526929268045490e+02 -3.2526937036556194e+02 -3.2526929254360391e+02 -3.2526937021919872e+02 -3.2526953890166538e+02 -3.2526953874184426e+02
 -3.6604887712474579e+02 -3.6604887319820131e+02 -3.6604885608498466e+02 -3.5247004554358642e+02 -3.5247004411619707e+02 -3.5247004012918302e+02 -3.6604898293842444e+02 -3.6604897889592678e+02 -3.6604896146588982e+02 -3.5246998707052683e+02
 -3.5246998561471702e+02 -3.5246998155523471e+02 -3.6604882955975791e+02 -3.6604881521043302e+02 -3.5247003542914348e+02 -3.5247003324909917e+02 -3.6604893457275034e+02 -3.6604892005504604e+02 -3.5246997677735453e+02 -3.5246997456342757e+02
 -3.2526966692940198e+02 -3.2526966678264216e+02 -3.2526966641277733e+02 -3.2526964033662949e+02 -3.2526964018719013e+02 -3.2526963981070742e+02 -3.2526966602162929e+02 -3.2526966585295798e+02 -3.2526963941273465e+02 -3.2526963924117473e+02
 -2.9801016214503341e+02 -2.9801021024203106e+02 -2.9801016213335288e+02 -2.9801021022992569e+02 -2.9801016210479168e+02 -2.9801021020027866e+02 -2.9801033603819548e+02 -2.9801033602527480e+02 -2.9801033599360233e+02 -2.9801016207569899e+02
 -2.9801021017000954e+02 -2.9801016206343820e+02 -2.9801021015724262e+02 -2.9801033596122790e+02 -2.9801033594756456e+02 -2.7069123340735348e+02 -2.7069132586765943e+02 -2.7069123340623804e+02 -2.7069132586651034e+02 -2.7069123340347426e+02
 -2.7069132586367010e+02 -2.7069158675591973e+02 -2.7069158675470942e+02 -2.7069158675171997e+02 -2.7069123340058513e+02 -2.7069132586070305e+02 -2.7069123339929746e+02 -2.7069132585939172e+02 -2.7069158674860131e+02 -2.7069158674722632e+02
 -2.9801049506492240e+02 -2.9801049505135734e+02 -2.9801049501810536e+02 -2.9801063907368155e+02 -2.9801063905987422e+02 -2.9801063902602999e+02 -2.9801049498411936e+02 -2.9801049496977885e+02 -2.9801063899144361e+02 -2.9801063897685236e+02
 -2.7069197065604891e+02 -2.7069197065478545e+02 -2.7069197065166577e+02 -2.7069241353569936e+02 -2.7069241353440316e+02 -2.7069241353120208e+02 -2.7069197064841592e+02 -2.7069197064698625e+02 -2.7069241352786975e+02 -2.7069241352640603e+02
 -2.4331215191225644e+02 -2.4331235470762059e+02 -2.4331215191225729e+02 -2.4331235470761541e+02 -2.4331215191219565e+02 -2.4331235470754493e+02 -2.4331293235425068e+02 -2.4331293235423979e+02 -2.4331293235415566e+02 -2.4331215191201878e+02
 -2.4331235470735982e+02 -2.4331215191185470e+02 -2.4331235470720102e+02 -2.4331293235395665e+02 -2.4331293235379198e+02 -2.1587203488326602e+02 -2.1587247097177328e+02 -2.1587203488502948e+02 -2.1587247097353327e+02 -2.1587203488922162e+02
 -2.1587247097772206e+02 -2.1587371574990806e+02 -2.1587371575166645e+02 -2.1587371575585149e+02 -2.1587203489329659e+02 -2.1587247098179421e+02 -2.1587203489489005e+02 -2.1587247098339472e+02 -2.1587371575991958e+02 -2.1587371576151838e+02
 -2.4331379725890270e+02 -2.4331379725888453e+02 -2.4331379725878156e+02 -2.4331481813357527e+02 -2.4331481813354034e+02 -2.4331481813339457e+02 -2.4331379725856365e+02 -2.4331379725839116e+02 -2.4331481813313309e+02 -2.4331481813294275e+02
 -2.1587558681135411e+02 -2.1587558681310517e+02 -2.1587558681727137e+02 -2.1587780660875052e+02 -2.1587780661047424e+02 -2.1587780661457214e+02 -2.1587558682132055e+02 -2.1587558682291163e+02 -2.1587780661855240e+02 -2.1587780662011511e+02
 -4.2537888985310786e+02 -4.2537067207179803e+02 -4.2539459903196263e+02 -4.2538638158585076e+02 -4.2535550586090551e+02 -4.2537121861199921e+02 -4.2532276172963844e+02 -4.2533905707287818e+02 -4.2501058532434502e+02 -4.2526743849615571e+02
 -4.2347164550020932e+02 -4.2367689992877723e+02 -4.2184118382831952e+02 -4.2196674218893509e+02 -4.2019324089799136e+02 -4.2025989727900304e+02 -4.2539459903196263e+02 -4.2538638172278922e+02 -4.2537121887982164e+02 -4.2533905905533646e+02
 -4.2526818562862837e+02 -4.2369112418985685e+02 -4.2198460295253722e+02 -4.2027736874400387e+02 -4.0670403712043856e+02 -4.0670938554501419e+02 -4.0671134585606950e+02 -4.2537888985310786e+02 -4.2537067207179751e+02 -4.2539459903196263e+02
 -4.2538638158585064e+02 -4.2535550585856134e+02 -4.2537121861197653e+02 -4.2532275742118833e+02 -4.2533905699082823e+02 -4.2500871143193382e+02 -4.2526736570758334e+02 -4.2346778054815883e+02 -4.2367413477911464e+02 -4.2183538588783051e+02
 -4.2196153510411602e+02 -4.2018570036746075e+02 -4.2025257148779133e+02 -4.2539459903196263e+02 -4.2538638172278911e+02 -4.2537121887980106e+02 -4.2533905898093860e+02 -4.2526811938542829e+02 -4.2368842287965128e+02 -4.2197946261520178e+02
 -4.2027009330749502e+02 -4.0669282319146674e+02 -4.0669816490345619e+02 -4.0670014248752130e+02 -4.2539459903196263e+02 -4.2538638157092583e+02 -4.2537121858275560e+02 -4.2533905667668807e+02 -4.2526720567862236e+02 -4.2367175743599063e+02
 -4.2195916893348743e+02 -4.2025115929498264e+02 -4.2537717774777707e+02 -4.2536895991369749e+02 -4.2535379309803079e+02 -4.2532084159732733e+02 -4.2494526609301738e+02 -4.2342168608767628e+02 -4.2180575902052050e+02 -4.2016898462713522e+02
 -4.0670651861239850e+02 -4.0669922000070989e+02 -4.2539459903196263e+02 -4.2538638157092578e+02 -4.2537121858273315e+02 -4.2533905659549180e+02 -4.2526713366292091e+02 -4.2366904568389180e+02 -4.2195406035018772e+02 -4.2024396829224264e+02
 -4.2537717774777707e+02 -4.2536895991369693e+02 -4.2535379309539570e+02 -4.2532083710602109e+02 -4.2494347056971242e+02 -4.2341796941275709e+02 -4.2180016505714372e+02 -4.2016168965304274e+02 -4.0669539230746096e+02 -4.0668814691778806e+02
 -3.9316480006520288e+02 -3.9316519392428950e+02 -3.9316523199979980e+02 -3.7961242276991277e+02 -3.7961243749639829e+02 -3.7961239143899684e+02 -3.9315674651031730e+02 -3.9315714011661061e+02 -3.9315718815062831e+02 -3.7960767331171462e+02
 -3.7960768888346098e+02 -3.7960764656064686e+02 -3.9316445305942773e+02 -3.9316370345683782e+02 -3.7961225566343330e+02 -3.7961216248914872e+02 -3.9315643298748324e+02 -3.9315569837327939e+02 -3.7960751674458754e+02 -3.7960742680828832e+02
 -4.2537888985310786e+02 -4.2537067206432835e+02 -4.2539459903196263e+02 -4.2538638154788310e+02 -4.2535550583138212e+02 -4.2537121853759237e+02 -4.2532273426260070e+02 -4.2533905598981681e+02 -4.2499867603091667e+02 -4.2526676323540488e+02
 -4.2344837356798899e+02 -4.2365730738625348e+02 -4.2180815590302745e+02 -4.2193365356626521e+02 -4.2015234639239929e+02 -4.2021698335958860e+02 -4.2539459903196263e+02 -4.2538638168482129e+02 -4.2537121880542463e+02 -4.2533905801238126e+02
 -4.2526754432964265e+02 -4.2367133676460600e+02 -4.2195096663334090e+02 -4.2023361003606169e+02 -4.0666722186964978e+02 -4.0667216577413734e+02 -4.0667400049079265e+02 -4.2537717774777707e+02 -4.2536895927459096e+02 -4.2537717774777707e+02
 -4.2536895942228580e+02 -4.2535379172760344e+02 -4.2535379203097403e+02 -4.2532063124592804e+02 -4.2532065715440189e+02 -4.2486377598264983e+02 -4.2487353840919150e+02 -4.2329367909608982e+02 -4.2330684134860752e+02 -4.2165596937870026e+02
 -4.2166870564269283e+02 -4.2001017295338414e+02 -4.2002112490544647e+02 -4.2537717774777707e+02 -4.2536895942229029e+02 -4.2535379203325516e+02 -4.2532066101530762e+02 -4.2487506876373453e+02 -4.2330965535495091e+02 -4.2167226690974326e+02
 -4.2002502578857275e+02 -4.0662562604434424e+02 -4.0662705654874475e+02 -4.0662753803337569e+02 -4.2539459903196263e+02 -4.2538638153295824e+02 -4.2537121850835126e+02 -4.2533905560219409e+02 -4.2526653801799466e+02 -4.2365263439136248e+02
 -4.2192690071280731e+02 -4.2020931778907294e+02 -4.2537717774777707e+02 -4.2536895991368988e+02 -4.2535379308261480e+02 -4.2532081535266093e+02 -4.2493478050365241e+02 -4.2340051306828974e+02 -4.2177506970649256e+02 -4.2013046405319636e+02
 -4.0666977697534020e+02 -4.0666316332685602e+02 -4.2537717774777707e+02 -4.2536895942228495e+02 -4.2535379202962844e+02 -4.2532065486451330e+02 -4.2487263064734441e+02 -4.2330509568704156e+02 -4.2166629959508060e+02 -4.2001823996367989e+02
 -4.2537717774777707e+02 -4.2536895925849257e+02 -4.2535379169130192e+02 -4.2532062291522840e+02 -4.2486053604893277e+02 -4.2328881122947695e+02 -4.2165042682616439e+02 -4.2000442439393640e+02 -4.0662567070434159e+02 -4.0662349376937686e+02
 -3.9314368741292623e+02 -3.9314404183472749e+02 -3.9314409113384954e+02 -3.7960150243918889e+02 -3.7960151610960554e+02 -3.7960147925847446e+02 -3.9313159024916308e+02 -3.9313171262040703e+02 -3.9313166742200372e+02 -3.7959752794890915e+02
 -3.7959752733473834e+02 -3.7959748841313296e+02 -3.9314343443424553e+02 -3.9314278618921270e+02 -3.7960136658369186e+02 -3.7960128833800314e+02 -3.9313127416615151e+02 -3.9313095556052440e+02 -3.7959740532212288e+02 -3.7959735425540731e+02
 -3.6604761916025291e+02 -3.6604761523890568e+02 -3.6604759813027709e+02 -3.5246920534239183e+02 -3.5246920391533854e+02 -3.5246919992851127e+02 -3.6604504373631090e+02 -3.6604504017229789e+02 -3.6604502415055117e+02 -3.5246789925729342e+02
 -3.5246789791774040e+02 -3.5246789416231798e+02 -3.6604757159978885e+02 -3.6604755724498648e+02 -3.5246919522783747e+02 -3.5246919304727049e+02 -3.6604499900869627e+02 -3.6604498532743224e+02 -3.5246788972071391e+02 -3.5246788765604731e+02
 -3.2526942532412949e+02 -3.2526942517730805e+02 -3.2526942480726581e+02 -3.2526908556541139e+02 -3.2526908542622743e+02 -3.2526908507525360e+02 -3.2526942441590296e+02 -3.2526942424712945e+02 -3.2526908470379919e+02 -3.2526908454347137e+02
 -3.6604215850339540e+02 -3.6604215525530532e+02 -3.6604214100493544e+02 -3.5246659223239249e+02 -3.5246659101021373e+02 -3.5246658761043085e+02 -3.6604066836641539e+02 -3.6604066451431720e+02 -3.6604065117993582e+02 -3.5246600610420228e+02
 -3.5246600491877928e+02 -3.5246600173703860e+02 -3.6604211890378338e+02 -3.6604210692786876e+02 -3.5246658361978041e+02 -3.5246658177218740e+02 -3.6604063268074117e+02 -3.6604062325304119e+02 -3.5246599812190652e+02 -3.5246599647663299e+02
 -3.2526876663211846e+02 -3.2526876650282026e+02 -3.2526876617741124e+02 -3.2526863356474513e+02 -3.2526863343962867e+02 -3.2526863312574795e+02 -3.2526876583333632e+02 -3.2526876568403475e+02 -3.2526863279145829e+02 -3.2526863263645640e+02
 -2.9801073599908494e+02 -2.9801073598544662e+02 -2.9801073595200722e+02 -2.9801078003602441e+02 -2.9801078002280582e+02 -2.9801077999034925e+02 -2.9801073591782142e+02 -2.9801073590339274e+02 -2.9801077995706737e+02 -2.9801077994293263e+02
 -2.7069284561411462e+02 -2.7069284561277732e+02 -2.7069284560946943e+02 -2.7069320329627158e+02 -2.7069320329476210e+02 -2.7069320329098679e+02 -2.7069284560601989e+02 -2.7069284560450245e+02 -2.7069320328696125e+02 -2.7069320328511577e+02
 -2.9801078871881367e+02 -2.9801078870572763e+02 -2.9801078867330989e+02 -2.9801078750903616e+02 -2.9801078749509537e+02 -2.9801078745918335e+02 -2.9801078863917400e+02 -2.9801078862350755e+02 -2.9801078741595376e+02 -2.9801078738496813e+02
 -2.7069343774733926e+02 -2.7069343774520763e+02 -2.7069343773959451e+02 -2.7069351917998654e+02 -2.7069351917660896e+02 -2.7069351916648696e+02 -2.7069343773275978e+02 -2.7069343772853148e+02 -2.7069351914937005e+02 -2.7069351912870314e+02
 -2.4331583974649232e+02 -2.4331583974639727e+02 -2.4331583974609839e+02 -2.4331670641893734e+02 -2.4331670641862110e+02 -2.4331670641773562e+02 -2.4331583974567320e+02 -2.4331583974540982e+02 -2.4331670641661461e+02 -2.4331670641597333e+02
 -2.1588004047304753e+02 -2.1588004047468550e+02 -2.1588004047856822e+02 -2.1588194550566737e+02 -2.1588194550704523e+02 -2.1588194551024716e+02 -2.1588004048232270e+02 -2.1588004048378681e+02 -2.1588194551321197e+02 -2.1588194551425931e+02
 -2.4331728581026587e+02 -2.4331728580926909e+02 -2.4331728580640427e+02 -2.4331748931872966e+02 -2.4331748931645831e+02 -2.4331748930901020e+02 -2.4331728580232848e+02 -2.4331728579922651e+02 -2.4331748929449586e+02 -2.4331748927425974e+02
 -2.1588322426874404e+02 -2.1588322426940266e+02 -2.1588322427053257e+02 -2.1588367443615434e+02 -2.1588367443552153e+02 -2.1588367443202463e+02 -2.1588322427044818e+02 -2.1588322426897989e+02 -2.1588367442138352e+02 -2.1588367440206960e+02
 -1.8836901585852507e+02 -1.8836993918987909e+02 -1.8836901587918842e+02 -1.8836993921054821e+02 -1.8836901592900915e+02 -1.8836993926038724e+02 -1.8837258072481850e+02 -1.8837258074549956e+02 -1.8837258079536772e+02 -1.8836901597871309e+02
 -1.8836993931010980e+02 -1.8836901599920367e+02 -1.8836993933061592e+02 -1.8837258084511924e+02 -1.8837258086563730e+02 -1.6079919623011517e+02 -1.6080112064067072e+02 -1.6079919646384650e+02 -1.6080112087456078e+02 -1.6079919702812592e+02
 -1.6080112143922733e+02 -1.6080664825430168e+02 -1.6080664848851026e+02 -1.6080664905394636e+02 -1.6079919759238399e+02 -1.6080112200387288e+02 -1.6079919782603463e+02 -1.6080112223769152e+02 -1.6080664961936171e+02 -1.6080664985349938e+02
 -1.8837656813277411e+02 -1.8837656815342720e+02 -1.8837656820322658e+02 -1.8838132553003467e+02 -1.8838132555054298e+02 -1.8838132559999050e+02 -1.8837656825290927e+02 -1.8837656827339893e+02 -1.8838132564932062e+02 -1.8838132566966453e+02
 -1.6081505554456012e+02 -1.6081505577875535e+02 -1.6081505634415825e+02 -1.6082518924134962e+02 -1.6082518947434122e+02 -1.6082519003683564e+02 -1.6081505690954074e+02 -1.6081505714366500e+02 -1.6082519059930883e+02 -1.6082519083222826e+02
 -1.3315456048582050e+02 -1.3315846844269740e+02 -1.3315456312145537e+02 -1.3315847108082173e+02 -1.3315456948677380e+02 -1.3315847745216152e+02 -1.3316977623063738e+02 -1.3316977887433018e+02 -1.3316978525912677e+02 -1.3315457585539181e+02
 -1.3315848382681207e+02 -1.3315457849426377e+02 -1.3315848646819313e+02 -1.3316979164725223e+02 -1.3316979429422011e+02 -1.0541916333355647e+02 -1.0542671908792623e+02 -1.0541919301599577e+02 -1.0542674880604500e+02 -1.0541926475686994e+02
 -1.0542682063338451e+02 -1.0544887633421649e+02 -1.0544890613653625e+02 -1.0544897816763766e+02 -1.0541933661384377e+02 -1.0542689257727304e+02 -1.0541936641234611e+02 -1.0542692241191097e+02 -1.0544905031596073e+02 -1.0544908023547168e+02
 -1.3318721648409866e+02 -1.3318721913108843e+02 -1.3318722552385231e+02 -1.3320864263012493e+02 -1.3320864526806255e+02 -1.3320865163896988e+02 -1.3318723191995750e+02 -1.3318723457023452e+02 -1.3320865801321759e+02 -1.3320866065444113e+02
 -1.0548393573736762e+02 -1.0548396561735453e+02 -1.0548403783628338e+02 -1.0552856221538227e+02 -1.0552859205756765e+02 -1.0552866418535751e+02 -1.0548411017288502e+02 -1.0548414017051412e+02 -1.0552873643098295e+02 -1.0552876639097394e+02
 -7.7562956834668341e+01 -7.7576199312155666e+01 -7.7563290180980601e+01 -7.7576533147950073e+01 -7.7564097683577430e+01 -7.7577341845427171e+01 -7.7616000662742920e+01 -7.7616335663052425e+01 -7.7617147189727007e+01 -7.7564909130260077e+01
 -7.7578154504993506e+01 -7.7565246422577189e+01 -7.7578492304713421e+01 -7.7617962703143220e+01 -7.7618301691965243e+01 -6.3570588785194914e+01 -6.3574819312123807e+01 -6.3572209024676901e+01 -6.3586488734100215e+01 -6.3588111905196989e+01
 -6.3576429038536332e+01 -6.3576156603069549e+01 -6.3592066817310958e+01 -6.3580350648972455e+01 -4.9516561213242724e+01 -4.9523205010562322e+01 -4.9520840567883653e+01 -4.9527487765888999e+01 -4.9533839159232031e+01 -4.9540497216282276e+01
 -4.9539599432328721e+01 -4.9543891591120051e+01 -4.9556929468533603e+01 -6.3606933215268690e+01 -6.3635386985551349e+01 -6.3637016648822566e+01 -6.3608548044533940e+01 -6.3640987495024923e+01 -6.3612482292664147e+01 -4.9556221509667388e+01
 -4.9562892565253613e+01 -4.9588834667910248e+01 -4.9595521227463450e+01 -4.9579357870563271e+01 -4.9612025022111837e+01 -6.3580156764436943e+01 -6.3596074654779528e+01 -6.3584323959264921e+01 -6.3581829638168372e+01 -6.3597750799069864e+01
 -6.3585985434062863e+01 -4.9556522600314857e+01 -4.9560825671898876e+01 -4.9573894897054181e+01 -4.9563696088028408e+01 -4.9568004038609587e+01 -4.9581086998285372e+01 -6.3645011624683164e+01 -6.3616468672805958e+01 -6.3646694617598321e+01
 -6.3618135679332291e+01 -4.9596358616974818e+01 -4.9629065712737550e+01 -4.9603565958602239e+01 -4.9636290007604245e+01 -7.7682017058531585e+01 -7.7682353369371199e+01 -7.7683168071205571e+01 -7.7771772966700098e+01 -7.7772109738565575e+01
 -7.7772925561496507e+01 -7.7683986775366478e+01 -7.7684327090318575e+01 -7.7773745397509586e+01 -7.7774086184311386e+01 -6.3673352741591216e+01 -6.3720121043794784e+01 -6.3721758578943472e+01 -6.3674974824120234e+01 -6.3725748567650221e+01
 -6.3678926760691240e+01 -4.9632917008229576e+01 -4.9639619205957651e+01 -4.9689834727290112e+01 -4.9696555725509207e+01 -4.9656161395967011e+01 -4.9713143924158757e+01 -6.3776998503348842e+01 -6.3842927919700827e+01 -6.3844572382811371e+01
 -6.3778628548134790e+01 -6.3848579248327219e+01 -6.3782599839249322e+01 -4.9761257058171580e+01 -4.9767998055288267e+01 -4.9848755931904108e+01 -4.9855518516421526e+01 -4.9784635224667852e+01 -4.9872208778760218e+01 -6.3729792028926127e+01
 -6.3682931074135212e+01 -6.3731483083313620e+01 -6.3684605578496829e+01 -4.9673241349266846e+01 -4.9730270712546996e+01 -4.9680482152109192e+01 -4.9737531149459805e+01 -6.3852639787266746e+01 -6.3786623685566425e+01 -6.3854337972149089e+01
 -6.3788306331527608e+01 -4.9801811879083829e+01 -4.9889439787421608e+01 -4.9809093221737456e+01 -4.9896743996787073e+01 -3.5360295026345057e+01 -3.5363953893184551e+01 -3.5386083056765258e+01 -3.5389759804411703e+01 -3.5375536692251693e+01
 -3.5401388752849037e+01 -3.5451736607486396e+01 -3.5455475237336515e+01 -3.5467243917224593e+01 -2.0951664676694200e+01 -2.0951467430832913e+01 -2.0974591468005933e+01 -2.0951747375768932e+01 -2.1042195140469321e+01 -2.0974414395721883e+01
 -2.1042450879962384e+01 -2.0974674035349437e+01 -2.1042348718278138e+01 -2.0953408779200895e+01 -2.0976334950946285e+01 -2.0956232431476167e+01 -2.1047058604626162e+01 -2.0979183884891405e+01 -2.1044135540831434e+01 -2.1152389247462292e+01
 -2.1296052718210795e+01 -2.1152250676401646e+01 -2.1296711549350754e+01 -2.1152624109338561e+01 -2.1296198638826315e+01 -2.1154388375405052e+01 -2.1302053851827765e+01 -2.1157497676975378e+01 -2.1298632637308231e+01 -3.5396364728567143e+01
 -3.5422273434507460e+01 -3.5428059746140583e+01 -3.5454026201149688e+01 -3.5488283286771136e+01 -3.5520184677039161e+01 -2.0961583421750863e+01 -2.0984550652551437e+01 -2.0968703292458596e+01 -2.1059720920066251e+01 -2.0991702630029465e+01
 -2.1052483405826870e+01 -2.0978792727479014e+01 -2.1001809249003081e+01 -2.0991030154209795e+01 -2.1082234724122621e+01 -2.1014078725082079e+01 -2.1069884382050489e+01 -2.1163015559566336e+01 -2.1315368314628333e+01 -2.1170427806742758e+01
 -2.1307697509158157e+01 -2.1180664358793994e+01 -2.1338411333850821e+01 -2.1193173374935267e+01 -2.1325679621865159e+01 -3.5522609186832312e+01 -3.5526432228503388e+01 -3.5538377071666673e+01 -3.5553633439088230e+01 -3.5557496144367590e+01
 -3.5569522608893820e+01 -2.1457317440331845e+01 -2.1608256041166968e+01 -2.1457148738520289e+01 -2.1609816463092685e+01 -2.1458269473954651e+01 -2.1608416024828163e+01 -2.1460406085488597e+01 -2.1616456482994323e+01 -2.1464265069926729e+01
 -2.1612145707055618e+01 -2.1717571795157991e+01 -2.1757946161785291e+01 -2.1717432516692824e+01 -2.1759936403580266e+01 -2.1719309435300840e+01 -2.1758064987121870e+01 -2.1721770322880854e+01 -2.1767221914613263e+01 -2.1726424100763790e+01
 -2.1762431906298058e+01 -3.5559595278933685e+01 -3.5591657822971058e+01 -3.5590821220041214e+01 -3.5622953978611854e+01 -2.1470037677865079e+01 -2.1630686091368577e+01 -2.1478047632017308e+01 -2.1622330583799908e+01 -2.1488406211949201e+01
 -2.1654363437154004e+01 -2.1501424024961498e+01 -2.1641058108806345e+01 -2.1732362446403208e+01 -2.1781895632823588e+01 -2.1740980851958994e+01 -2.1773170541287449e+01 -2.1751350304878883e+01 -2.1805864748238854e+01 -2.1764874873499515e+01
 -2.1792250393364483e+01 -1.3460582797816226e+01 -1.3494565894124909e+01 -1.3463753072004666e+01 -1.3498169183865695e+01 -1.3455481943709701e+01 -1.3489128060774590e+01 -1.3609189469659901e+01 -1.3605199701229115e+01 -1.3599353081904916e+01
 -5.7223586549268566e+00 -5.7016451111674087e+00 -5.7406202372927888e+00 -5.7115622943911646e+00 -5.6809171727038548e+00 -5.6873620499422239e+00 -5.8489936341248505e+00 -5.8151953457544963e+00 -5.7874076027591421e+00 -1.3451735350947352e+01
 -1.3485237993126429e+01 -1.3450428799901902e+01 -1.3483897062083503e+01 -1.3595279681314167e+01 -1.3593926958296871e+01 -5.6685672613223943e+00 -5.6740749476512695e+00 -5.6626473375551711e+00 -5.6679541680858181e+00 -5.7726686405246568e+00
 -5.7661143864984314e+00 -1.3804975854552399e+01 -1.3809058494273716e+01 -1.3799088465276052e+01 -1.4107125824560944e+01 -1.4103586847666593e+01 -1.4098487702299048e+01 -6.1020208505472633e+00 -6.0657287438421523e+00 -6.0355437618683334e+00
 -6.5863048230427959e+00 -6.5534204950984360e+00 -6.5245828233846197e+00 -1.3795111147939886e+01 -1.3793947100410938e+01 -1.4095216069167780e+01 -1.4094623871925739e+01 -6.0197736658698577e+00 -6.0129805952623956e+00 -6.5095579184606507e+00
 -6.5033574828162868e+00 -3.7895391034384720e+00 -3.7489873081705087e+00 -3.7806996462273745e+00 -3.7037088066017745e+00 -1.8828080875504745e+00 -1.8166086141616706e+00 -1.8385704317222207e+00 -1.6593837382710610e+00 -9.6742177542960689e-02
 -1.8344831266675615e-02 -2.9248263921944892e-02 3.3896309930604657e-01 4.2226189934430647e-01 4.2246340590738962e-01 4.2243799146841271e-01 4.3834812045629057e-01 -3.7234477174529808e+00 -3.6711053023769695e+00 -1.7901854133183792e+00
 -1.6242526396004526e+00 -1.1780314601656711e-03 3.4736947276876307e-01 4.2250341130834268e-01 4.3836265390577112e-01 -3.8602479993586041e+00 -3.7716308404800762e+00 -1.8832641411211701e+00 -1.6837334971267952e+00 -4.4080038602448801e-02