DF-ISE text

Info {
  version = 1.0
  type    = dataset
  dimension   = 3
  nb_vertices = 5293
  nb_edges    = 23303
  nb_faces    = 30690
  nb_elements = 12980
  nb_regions  = 3
  datasets    = [ "ElectrostaticPotential" "ContactExternalVoltage" "ContactCurrentFlux" "ContactCharge" "eQuasiFermiPotential" "hQuasiFermiPotential" "QuasiFermiPotential" "LatticeTemperature" ]
  functions   = [ ElectrostaticPotential ContactExternalVoltage ContactCurrentFlux ContactCharge eQuasiFermiPotential hQuasiFermiPotential QuasiFermiPotential LatticeTemperature ]
}

Data {

  Dataset ("ElectrostaticPotential") {
    function  = ElectrostaticPotential
    type      = scalar
    dimension = 1
    location  = vertex
    validity  = [ "substrate" ]
    Values (5293) {
 -4.0037888985310792e+02 -4.0037067152400454e+02 -4.0037888985310792e+02 -4.0037888985310792e+02 -4.0037067207180996e+02 -4.0037067166095085e+02 -4.0039459903196263e+02 -4.0038638155161470e+02 -4.0035550481679689e+02 -4.0035550594477291e+02
 -4.0035550509364862e+02 -4.0037121854583120e+02 -4.0032280732302860e+02 -4.0032291591054116e+02 -4.0032282504794836e+02 -4.0033905948641217e+02 -4.0003246648477267e+02 -4.0007788793918581e+02 -4.0003969263410204e+02 -4.0026983212075817e+02
 -3.9854514016463520e+02 -3.9861500251568026e+02 -3.9855509847956887e+02 -3.9877639171820323e+02 -3.9698847351478878e+02 -3.9706695313313264e+02 -3.9699817189996037e+02 -3.9716407971815960e+02 -3.9542628499500091e+02 -3.9550588794247193e+02
 -3.9543464955216797e+02 -3.9555586806090798e+02 -4.0037888985310792e+02 -4.0037067166095466e+02 -4.0039459903196263e+02 -4.0038638168855283e+02 -4.0035550509503759e+02 -4.0037121881357456e+02 -4.0032282757540634e+02 -4.0033906118910096e+02
 -4.0004079449162111e+02 -4.0027033967628040e+02 -3.9855713150612144e+02 -3.9878700902827376e+02 -3.9700073532752521e+02 -3.9717713078329911e+02 -3.9543744001612390e+02 -3.9556830516034256e+02 -3.8279258997860268e+02 -3.8281730168634692e+02
 -3.8279364862244881e+02 -3.8282106804375826e+02 -3.8279388955381131e+02 -3.8282228709834010e+02 -4.0037888985310792e+02 -4.0037067207181479e+02 -4.0039459903196263e+02 -4.0038638158585076e+02 -4.0035550595145634e+02 -4.0037121861283282e+02
 -4.0032292816940992e+02 -4.0033906013136340e+02 -4.0008325720190851e+02 -4.0027015208533595e+02 -3.9862585474340784e+02 -3.9878662822250084e+02 -3.9708257843246389e+02 -3.9718101415687670e+02 -3.9552533295751550e+02 -3.9557743751417092e+02
 -4.0039459903196263e+02 -4.0038638172278928e+02 -4.0037121888057493e+02 -4.0033906182444917e+02 -4.0027065186790969e+02 -3.9879752177561801e+02 -3.9719461661629481e+02 -3.9559062140193538e+02 -3.8283241754102090e+02 -3.8283651160769324e+02
 -3.8283782324311375e+02 -4.0037888985310792e+02 -4.0037067166095022e+02 -4.0039459903196263e+02 -4.0038638153668984e+02 -4.0035550509251988e+02 -4.0037121851659941e+02 -4.0032282297629393e+02 -4.0033905913153558e+02 -4.0003878934432930e+02
 -4.0026963499994810e+02 -3.9855335939062365e+02 -3.9877174744732434e+02 -3.9699577381279937e+02 -3.9715735392197502e+02 -3.9543177343536689e+02 -3.9554822701127853e+02 -4.0037888985310792e+02 -4.0037067150907814e+02 -4.0037717774777701e+02
 -4.0036895992176210e+02 -4.0035550478356311e+02 -4.0035379321442031e+02 -4.0032279977640616e+02 -4.0032101323405965e+02 -4.0002923692552565e+02 -4.0001412867620945e+02 -3.9854028576273134e+02 -3.9856724117369436e+02 -3.9698294569802687e+02
 -3.9703393871829104e+02 -3.9542055150340366e+02 -3.9548405618813240e+02 -3.8279226664903803e+02 -3.8281868593789676e+02 -3.8279046344852719e+02 -3.8281325360968810e+02 -4.0039459903196263e+02 -4.0038638157092583e+02 -4.0037121858359819e+02
 -4.0033905976703892e+02 -4.0026994665375429e+02 -3.9878156998725791e+02 -3.9717357054351345e+02 -3.9556886398184400e+02 -4.0037717774777701e+02 -4.0036895991371898e+02 -4.0035379320460015e+02 -4.0032102323868560e+02 -4.0001818845734061e+02
 -3.9857616916370245e+02 -3.9704744874603250e+02 -3.9550138670264585e+02 -3.8283374738597689e+02 -3.8282775453451319e+02 -3.7008614919249641e+02 -3.7009332722059708e+02 -3.7008622649663403e+02 -3.7009357989204688e+02 -3.7008614614384703e+02
 -3.7009355809322631e+02 -3.5734988070636757e+02 -3.5735215818481299e+02 -3.5734987499695984e+02 -3.5735216259846703e+02 -3.5734983172643967e+02 -3.5735211824730243e+02 -3.7010082523637942e+02 -3.7010110709973424e+02 -3.7010107615379616e+02
 -3.5735549519436654e+02 -3.5735550036727517e+02 -3.5735544957606254e+02 -3.7008578926560483e+02 -3.7009297417419702e+02 -3.7008551626602843e+02 -3.7009242844075243e+02 -3.5734975334068542e+02 -3.5735201349377132e+02 -3.5734970752903916e+02
 -3.5735194468440238e+02 -3.7010040204762259e+02 -3.7009978012689015e+02 -3.5735532873123589e+02 -3.5735524940782409e+02 -4.0037888985310792e+02 -4.0037067207181502e+02 -4.0039459903196263e+02 -4.0038638158585087e+02 -4.0035550595277061e+02
 -4.0037121861284470e+02 -4.0032293058500306e+02 -4.0033906017366121e+02 -4.0008431570403741e+02 -4.0027018959977329e+02 -3.9862805581079988e+02 -3.9878823086313969e+02 -3.9708589107489530e+02 -3.9718403306881601e+02 -3.9552964566530437e+02
 -3.9558167918859101e+02 -4.0039459903196263e+02 -4.0038638172278934e+02 -4.0037121888058584e+02 -4.0033906186337686e+02 -4.0027068653126344e+02 -3.9879909363103121e+02 -3.9719760658149789e+02 -3.9559484562871887e+02 -3.8283860454717313e+02
 -3.8284271029499723e+02 -3.8284400508579739e+02 -4.0037888985310792e+02 -4.0037067207181508e+02 -4.0039459903196263e+02 -4.0038638158585087e+02 -4.0035550595296121e+02 -4.0037121861284629e+02 -4.0032293093547833e+02 -4.0033906017959191e+02
 -4.0008446929296372e+02 -4.0027019486007748e+02 -3.9862837650599903e+02 -3.9878845578748172e+02 -3.9708637752391900e+02 -3.9718446188329960e+02 -3.9553028539847668e+02 -3.9558229000685765e+02 -4.0039459903196263e+02 -4.0038638172278934e+02
 -4.0037121888058732e+02 -4.0033906186873793e+02 -4.0027069130601097e+02 -3.9879931061972013e+02 -3.9719802484381523e+02 -3.9559544536677106e+02 -3.8283970292450539e+02 -3.8284380645022031e+02 -3.8284509523434343e+02 -4.0039459903196263e+02
 -4.0038638157092589e+02 -4.0037121858360968e+02 -4.0033905980825381e+02 -4.0026998320086335e+02 -3.9878311986740886e+02 -3.9717649209207508e+02 -3.9557297231355466e+02 -4.0037717774777701e+02 -4.0036895991371921e+02 -4.0035379320603880e+02
 -4.0032102569096202e+02 -4.0001917685326549e+02 -3.9857822828464128e+02 -3.9705056229247526e+02 -3.9550545759213776e+02 -3.8283985235181876e+02 -3.8283380168606084e+02 -4.0039459903196263e+02 -4.0038638157092589e+02 -4.0037121858361127e+02
 -4.0033905981407474e+02 -4.0026998836228455e+02 -3.9878333875977592e+02 -3.9717690956620254e+02 -3.9557356731678431e+02 -4.0037717774777701e+02 -4.0036895991371927e+02 -4.0035379320625384e+02 -4.0032102605742375e+02 -4.0001932456452766e+02
 -3.9857853563126446e+02 -3.9705102861767278e+02 -3.9550607150958564e+02 -3.8284093228501820e+02 -3.8283487654025237e+02 -3.7010495287198205e+02 -3.7010523455846067e+02 -3.7010519313331173e+02 -3.5735765454698617e+02 -3.5735765874837358e+02
 -3.5735760410925951e+02 -3.7010562045486955e+02 -3.7010590132663236e+02 -3.7010585701543408e+02 -3.5735786573849151e+02 -3.5735786958152738e+02 -3.5735781388406770e+02 -3.7010449594780363e+02 -3.7010385955020621e+02 -3.5735747746241361e+02
 -3.5735739504609273e+02 -3.7010515556821656e+02 -3.7010451695260457e+02 -3.5735768590986260e+02 -3.5735760285619222e+02 -3.4459424972049919e+02 -3.4459504109051920e+02 -3.4459424532059217e+02 -3.4459503697876056e+02 -3.4459423151033553e+02
 -3.4459502198506163e+02 -3.3182221796831925e+02 -3.3182248791737982e+02 -3.3182221674373693e+02 -3.3182248663729354e+02 -3.3182221353523494e+02 -3.3182248319088706e+02 -3.4459644820785962e+02 -3.4459644366092101e+02 -3.4459642679047181e+02
 -3.3182302214260221e+02 -3.3182302073600044e+02 -3.3182301692482270e+02 -3.4459421359613242e+02 -3.4459500073534554e+02 -3.4459420477235733e+02 -3.4459498966921183e+02 -3.3182220998699148e+02 -3.3182247927423452e+02 -3.3182220840857104e+02
 -3.3182247749698615e+02 -3.4459640261851331e+02 -3.4459638997079543e+02 -3.3182301256440877e+02 -3.3182301057740148e+02 -3.0623200445493291e+02 -3.0623205975984581e+02 -3.0623200433101670e+02 -3.0623205963008775e+02 -3.0623200402396043e+02
 -3.0623205930660657e+02 -3.0623217580644962e+02 -3.0623217566590722e+02 -3.0623217531472818e+02 -3.0623200370596271e+02 -3.0623205896908854e+02 -3.0623200357083169e+02 -3.0623205882486309e+02 -3.0623217494723349e+02 -3.0623217478987834e+02
 -3.4459741755386329e+02 -3.4459741263015917e+02 -3.4459739465665666e+02 -3.3182337912089844e+02 -3.3182337762486918e+02 -3.3182337358061653e+02 -3.4459737450375690e+02 -3.4459736946014192e+02 -3.4459735116679178e+02 -3.3182324536730346e+02
 -3.3182324384248471e+02 -3.3182323972557117e+02 -3.4459736912169683e+02 -3.4459735582376305e+02 -3.3182336896351222e+02 -3.3182336686276011e+02 -3.4459732526984197e+02 -3.4459731180869335e+02 -3.3182323503139867e+02 -3.3182323289737354e+02
 -3.0623225065051054e+02 -3.0623225050206281e+02 -3.0623225013122328e+02 -3.0623219867135003e+02 -3.0623219852021543e+02 -3.0623219814276626e+02 -3.0623224974326706e+02 -3.0623224957719236e+02 -3.0623219774803107e+02 -3.0623219757909783e+02
 -2.8058193947577098e+02 -2.8058197979574226e+02 -2.8058193946407096e+02 -2.8058197978360846e+02 -2.8058193943553283e+02 -2.8058197975398053e+02 -2.8058208578572754e+02 -2.8058208577277367e+02 -2.8058208574112092e+02 -2.8058193940655019e+02
 -2.8058197972383425e+02 -2.8058193939435961e+02 -2.8058197971114390e+02 -2.8058208570888576e+02 -2.8058208569531109e+02 -2.5487213925994993e+02 -2.5487222448830732e+02 -2.5487213925882472e+02 -2.5487222448714692e+02 -2.5487213925604991e+02
 -2.5487222448429685e+02 -2.5487246530573714e+02 -2.5487246530451540e+02 -2.5487246530151705e+02 -2.5487213925315598e+02 -2.5487222448132547e+02 -2.5487213925186680e+02 -2.5487222448000864e+02 -2.5487246529839572e+02 -2.5487246529701676e+02
 -2.8058222123126222e+02 -2.8058222121766374e+02 -2.8058222118443575e+02 -2.8058234633063722e+02 -2.8058234631679858e+02 -2.8058234628298334e+02 -2.8058222115059937e+02 -2.8058222113635401e+02 -2.8058234624855277e+02 -2.8058234623405957e+02
 -2.5487282058023075e+02 -2.5487282057895629e+02 -2.5487282057582925e+02 -2.5487323182624414e+02 -2.5487323182493896e+02 -2.5487323182173452e+02 -2.5487282057257846e+02 -2.5487282057114589e+02 -2.5487323181840515e+02 -2.5487323181694009e+02
 -2.2910224414248702e+02 -2.2910243375065886e+02 -2.2910224414246784e+02 -2.2910243375063226e+02 -2.2910224414236933e+02 -2.2910243375052616e+02 -2.2910297392549461e+02 -2.2910297392546215e+02 -2.2910297392534309e+02 -2.2910224414215935e+02
 -2.2910243375030788e+02 -2.2910224414198137e+02 -2.2910243375013113e+02 -2.2910297392511188e+02 -2.2910297392493021e+02 -2.0327141898996450e+02 -2.0327182757664551e+02 -2.0327141899161239e+02 -2.0327182757828834e+02 -2.0327141899553772e+02
 -2.0327182758221156e+02 -2.0327299388567585e+02 -2.0327299388731689e+02 -2.0327299389123684e+02 -2.0327141899934958e+02 -2.0327182758602035e+02 -2.0327141900083382e+02 -2.0327182758750772e+02 -2.0327299389504250e+02 -2.0327299389652904e+02
 -2.2910378297283526e+02 -2.2910378297279590e+02 -2.2910378297265919e+02 -2.2910473829710048e+02 -2.2910473829704645e+02 -2.2910473829687115e+02 -2.2910378297241044e+02 -2.2910378297222178e+02 -2.2910473829658278e+02 -2.2910473829637786e+02
 -2.0327474708843272e+02 -2.0327474709006714e+02 -2.0327474709397015e+02 -2.0327682720040576e+02 -2.0327682720201605e+02 -2.0327682720585761e+02 -2.0327474709775896e+02 -2.0327474709923882e+02 -2.0327682720958396e+02 -2.0327682721103815e+02
 -4.0037888985310792e+02 -4.0037067207181497e+02 -4.0039459903196263e+02 -4.0038638158585087e+02 -4.0035550595254273e+02 -4.0037121861284277e+02 -4.0032293016624283e+02 -4.0033906016655345e+02 -4.0008413218662980e+02 -4.0027018329528778e+02
 -3.9862766955254506e+02 -3.9878796118405222e+02 -3.9708529691511444e+02 -3.9718351299777186e+02 -3.9552884815011123e+02 -3.9558092430718824e+02 -4.0039459903196263e+02 -4.0038638172278934e+02 -4.0037121888058408e+02 -4.0033906185695338e+02
 -4.0027068081016677e+02 -3.9879883356436960e+02 -3.9719709941251421e+02 -3.9559410438186200e+02 -3.8283661988851043e+02 -3.8284072993564462e+02 -3.8284202720034722e+02 -4.0037888985310792e+02 -4.0037067207181462e+02 -4.0039459903196263e+02
 -4.0038638158585076e+02 -4.0035550595063148e+02 -4.0037121861282600e+02 -4.0032292665352395e+02 -4.0033906010641135e+02 -4.0008259301969366e+02 -4.0027012995774089e+02 -3.9862447987707918e+02 -3.9878568584203265e+02 -3.9708050645180572e+02
 -3.9717922153926344e+02 -3.9552261516830413e+02 -3.9557488285074976e+02 -4.0039459903196263e+02 -4.0038638172278922e+02 -4.0037121888056885e+02 -4.0033906180200421e+02 -4.0027063187888149e+02 -3.9879661568791181e+02 -3.9719287289840611e+02
 -3.9558811845042902e+02 -3.8282733479941328e+02 -3.8283144467425006e+02 -3.8283276516700579e+02 -4.0039459903196263e+02 -4.0038638157092589e+02 -4.0037121858360769e+02 -4.0033905980107448e+02 -4.0026997683524166e+02 -3.9878285000988961e+02
 -3.9717597177895965e+02 -3.9557221715596961e+02 -4.0037717774777701e+02 -4.0036895991371915e+02 -4.0035379320576948e+02 -4.0032102523188479e+02 -4.0001899180852081e+02 -3.9857784087193107e+02 -3.9704996725489360e+02 -3.9550465941539267e+02
 -3.8283787188297083e+02 -3.8283181685354526e+02 -4.0039459903196263e+02 -4.0038638157092578e+02 -4.0037121858359126e+02 -4.0033905974183682e+02 -4.0026992431294525e+02 -3.9878062700629374e+02 -3.9717177712652637e+02 -3.9556630842131511e+02
 -4.0037717774777701e+02 -4.0036895991371870e+02 -4.0035379320362540e+02 -4.0032102157751854e+02 -4.0001751902193570e+02 -3.9857479033873568e+02 -3.9704537378981564e+02 -3.9549866671579326e+02 -3.8282868014280143e+02 -3.8282267129157401e+02
 -3.7010286009972663e+02 -3.7010314223755961e+02 -3.7010310114370060e+02 -3.5735592948594433e+02 -3.5735593373487467e+02 -3.5735587913390589e+02 -3.7009616025629498e+02 -3.7009644366926437e+02 -3.7009641383706594e+02 -3.5735194841731635e+02
 -3.5735195374213271e+02 -3.5735190307226151e+02 -3.7010240359425876e+02 -3.7010176673046453e+02 -3.5735575243988262e+02 -3.5735566997218683e+02 -3.7009573853387207e+02 -3.7009511502473936e+02 -3.5735178208433848e+02 -3.5735170259966787e+02
 -4.0037888985310792e+02 -4.0037067206434591e+02 -4.0039459903196263e+02 -4.0038638154788322e+02 -4.0035550592560423e+02 -4.0037121853849510e+02 -4.0032290744967446e+02 -4.0033905929895570e+02 -4.0007421311794030e+02 -4.0026969612118592e+02
 -3.9860831068846352e+02 -3.9877188040235421e+02 -3.9705788485781585e+02 -3.9715629216185931e+02 -3.9549496440022961e+02 -3.9554558754413836e+02 -4.0039459903196263e+02 -4.0038638168482134e+02 -4.0037121880624233e+02 -4.0033906101476981e+02
 -4.0027021483589789e+02 -3.9878264768008989e+02 -3.9716952753183671e+02 -3.9555820224262908e+02 -3.8280621168277207e+02 -3.8281002656667744e+02 -3.8281127004534500e+02 -4.0037717774777707e+02 -4.0036895927461757e+02 -4.0037717774777707e+02
 -4.0036895942231172e+02 -4.0035379186060749e+02 -4.0035379216028173e+02 -4.0032085791565237e+02 -4.0032087752977162e+02 -3.9995400312859960e+02 -3.9996135179735552e+02 -3.9847469158357382e+02 -3.9848479955206813e+02 -3.9692880759837124e+02
 -3.9693864514373195e+02 -3.9537592140959254e+02 -3.9538440226916265e+02 -4.0037717774777707e+02 -4.0036895942231610e+02 -4.0035379216194281e+02 -4.0032088033405404e+02 -3.9996247410114205e+02 -3.9848686815053742e+02 -3.9694125310317395e+02
 -3.9538724160045956e+02 -3.8277179806324091e+02 -3.8277287267365170e+02 -3.8277312366999553e+02 -4.0039459903196263e+02 -4.0038638153295835e+02 -4.0037121850926286e+02 -4.0033905894266053e+02 -4.0026949779155734e+02 -3.9876723408166299e+02
 -3.9714956404304161e+02 -3.9553794415597821e+02 -4.0037717774777701e+02 -4.0036895991371210e+02 -4.0035379319328706e+02 -4.0032100398681411e+02 -4.0001043404946807e+02 -3.9856053565281621e+02 -3.9702486109057986e+02 -3.9547312655597705e+02
 -3.8280764383925026e+02 -3.8280216256156899e+02 -4.0037717774777707e+02 -4.0036895942231092e+02 -4.0035379215895352e+02 -4.0032087526942860e+02 -3.9996044703398832e+02 -3.9848305897921267e+02 -3.9693624559844847e+02 -3.9538152474755742e+02
 -4.0037717774777707e+02 -4.0036895925851934e+02 -4.0035379182436571e+02 -4.0032084968585724e+02 -3.9995077008198012e+02 -3.9846983392682512e+02 -3.9692327686655835e+02 -3.9537018536471811e+02 -3.8277149021675496e+02 -3.8276967079006164e+02
 -3.7008537719445133e+02 -3.7008563379326637e+02 -3.7008561463898428e+02 -3.5734683344463872e+02 -3.5734683819182123e+02 -3.5734679409850725e+02 -3.7007539739372845e+02 -3.7007547654791978e+02 -3.7007539759070738e+02 -3.5734355068120971e+02
 -3.5734354516938294e+02 -3.5734350205542864e+02 -3.7008502792845042e+02 -3.7008447819597143e+02 -3.5734668904918311e+02 -3.5734661988899597e+02 -3.7007503917235681e+02 -3.7007476424973532e+02 -3.5734342346239885e+02 -3.5734337742248664e+02
 -3.4459615647872346e+02 -3.4459615155981942e+02 -3.4459613358995813e+02 -3.3182253338501420e+02 -3.3182253188924818e+02 -3.3182252784500326e+02 -3.4459397466589121e+02 -3.4459397013333859e+02 -3.4459395327401148e+02 -3.3182141051168782e+02
 -3.3182140910577840e+02 -3.3182140529451050e+02 -3.4459610804880100e+02 -3.4459609474500252e+02 -3.3182252322708524e+02 -3.3182252112573610e+02 -3.4459392908455334e+02 -3.4459391641972911e+02 -3.3182140093168846e+02 -3.3182139894289276e+02
 -3.0623199606445638e+02 -3.0623199591594943e+02 -3.0623199554493340e+02 -3.0623169762895111e+02 -3.0623169748815889e+02 -3.0623169713625646e+02 -3.0623199515676220e+02 -3.0623199499058518e+02 -3.0623169676785182e+02 -3.0623169661000964e+02
 -3.4459156629085726e+02 -3.4459156220729631e+02 -3.4459154723463274e+02 -3.3182030717565590e+02 -3.3182030589645478e+02 -3.3182030244874636e+02 -3.4459032932104788e+02 -3.4459032493935877e+02 -3.4459031113872942e+02 -3.3181981585197400e+02
 -3.3181981462667250e+02 -3.3181981141223281e+02 -3.4459152595055178e+02 -3.4459151484967128e+02 -3.3182029852589119e+02 -3.3182029674364594e+02 -3.4459029318780586e+02 -3.4459028432492772e+02 -3.3181980784874412e+02 -3.3181980625236611e+02
 -3.0623142390691976e+02 -3.0623142377629290e+02 -3.0623142345024166e+02 -3.0623131068251888e+02 -3.0623131055653056e+02 -3.0623131024263387e+02 -3.0623142310902335e+02 -3.0623142296205293e+02 -3.0623130991151947e+02 -3.0623130975988397e+02
 -2.8058243381876730e+02 -2.8058243380510464e+02 -2.8058243377170612e+02 -2.8058247740636028e+02 -2.8058247739313953e+02 -2.8058247736076856e+02 -2.8058243373768579e+02 -2.8058243372335863e+02 -2.8058247732769269e+02 -2.8058247731367931e+02
 -2.5487363456113843e+02 -2.5487363455980000e+02 -2.5487363455650319e+02 -2.5487396917465628e+02 -2.5487396917316795e+02 -2.5487396916945269e+02 -2.5487363455306988e+02 -2.5487363455155653e+02 -2.5487396916549403e+02 -2.5487396916367837e+02
 -2.8058248983929820e+02 -2.8058248982626225e+02 -2.8058248979406318e+02 -2.8058249076863217e+02 -2.8058249075483474e+02 -2.8058249071945852e+02 -2.8058248976031928e+02 -2.8058248974494052e+02 -2.8058249067736500e+02 -2.8058249064814197e+02
 -2.5487418915531001e+02 -2.5487418915324756e+02 -2.5487418914782822e+02 -2.5487426569062103e+02 -2.5487426568739852e+02 -2.5487426567778198e+02 -2.5487418914126175e+02 -2.5487418913724017e+02 -2.5487426566168773e+02 -2.5487426564273977e+02
 -2.2910569472106349e+02 -2.2910569472095747e+02 -2.2910569472064412e+02 -2.2910650641174578e+02 -2.2910650641144139e+02 -2.2910650641059161e+02 -2.2910569472020609e+02 -2.2910569471993392e+02 -2.2910650640950968e+02 -2.2910650640888579e+02
 -2.0327892064723181e+02 -2.0327892064876670e+02 -2.0327892065241338e+02 -2.0328070605351755e+02 -2.0328070605481841e+02 -2.0328070605784194e+02 -2.0327892065593323e+02 -2.0327892065729671e+02 -2.0328070606063127e+02 -2.0328070606160716e+02
 -2.2910704921124741e+02 -2.2910704921031095e+02 -2.2910704920761643e+02 -2.2910723989843908e+02 -2.2910723989631384e+02 -2.2910723988934740e+02 -2.2910704920378214e+02 -2.2910704920087466e+02 -2.2910723987582719e+02 -2.2910723985732437e+02
 -2.0328190457943609e+02 -2.0328190458006907e+02 -2.0328190458116191e+02 -2.0328232651255558e+02 -2.0328232651198417e+02 -2.0328232650876399e+02 -2.0328190458111126e+02 -2.0328190457975103e+02 -2.0328232649890950e+02 -2.0328232648126928e+02
 -1.7737791186143866e+02 -1.7737877723058031e+02 -1.7737791188091521e+02 -1.7737877725005984e+02 -1.7737791192788364e+02 -1.7737877729704513e+02 -1.7738125298832560e+02 -1.7738125300781508e+02 -1.7738125305482549e+02 -1.7737791197473896e+02
 -1.7737877734391606e+02 -1.7737791199404924e+02 -1.7737877736323694e+02 -1.7738125310172171e+02 -1.7738125312105356e+02 -1.5141806786714886e+02 -1.5141987141711942e+02 -1.5141806808762070e+02 -1.5141987163772771e+02 -1.5141806861989946e+02
 -1.5141987217034537e+02 -1.5142505202279975e+02 -1.5142505224368659e+02 -1.5142505277697811e+02 -1.5141806915215625e+02 -1.5141987270293984e+02 -1.5141806937254987e+02 -1.5141987292347727e+02 -1.5142505331024694e+02 -1.5142505353106438e+02
 -1.7738499028478520e+02 -1.7738499030424904e+02 -1.7738499035119659e+02 -1.7738944948277663e+02 -1.7738944950210981e+02 -1.7738944954873858e+02 -1.7738499039803000e+02 -1.7738499041733618e+02 -1.7738944959525224e+02 -1.7738944961442621e+02
 -1.5143293196256036e+02 -1.5143293218343163e+02 -1.5143293271668492e+02 -1.5144243075334006e+02 -1.5144243097312483e+02 -1.5144243150375141e+02 -1.5143293324991595e+02 -1.5143293347071815e+02 -1.5144243203435468e+02 -1.5144243225406862e+02
 -1.2538437506898360e+02 -1.2538803697209516e+02 -1.2538437755533951e+02 -1.2538803946061803e+02 -1.2538438356017544e+02 -1.2538804547070178e+02 -1.2539863330331997e+02 -1.2539863579673380e+02 -1.2539864181863851e+02 -1.2538438956816501e+02
 -1.2538805148394765e+02 -1.2538439205761544e+02 -1.2538805397558185e+02 -1.2539864784372213e+02 -1.2539865034026509e+02 -9.9261894073730858e+01 -9.9268971772847323e+01 -9.9261922076117230e+01 -9.9268999806158178e+01 -9.9261989757418576e+01
 -9.9269067562417646e+01 -9.9289728646968967e+01 -9.9289756754107202e+01 -9.9289824689041993e+01 -9.9262057549749301e+01 -9.9269135430107823e+01 -9.9262085663127095e+01 -9.9269163574818393e+01 -9.9289892736020647e+01 -9.9289920955171695e+01
 -1.2541497781920438e+02 -1.2541498031556351e+02 -1.2541498634458632e+02 -1.2543506058753194e+02 -1.2543506307580506e+02 -1.2543506908530367e+02 -1.2541499237680037e+02 -1.2541499487630071e+02 -1.2543507509799319e+02 -1.2543507758940667e+02
 -9.9322577373751628e+01 -9.9322605550595796e+01 -9.9322673654129645e+01 -9.9364400123977546e+01 -9.9364428268861602e+01 -9.9364496295376767e+01 -9.9322741870147766e+01 -9.9322770159445042e+01 -9.9364564434567200e+01 -9.9364592692095457e+01
 -7.3022481940227507e+01 -7.3034879338463568e+01 -7.3022796424728682e+01 -7.3035194243708915e+01 -7.3023558269650550e+01 -7.3035957116158613e+01 -7.3072143682503039e+01 -7.3072459603531215e+01 -7.3073224944434571e+01 -7.3024323886741541e+01
 -7.3036723776889957e+01 -7.3024642145009167e+01 -7.3037042471926270e+01 -7.3073994095993854e+01 -7.3074313829117017e+01 -5.9841190469996874e+01 -5.9845153396201006e+01 -5.9842718985057836e+01 -5.9856070400364487e+01 -5.9857601402237727e+01
 -5.9846671918822047e+01 -5.9846443512211913e+01 -5.9861332161056936e+01 -5.9850371756190881e+01 -4.6601114079914133e+01 -4.6607380637127044e+01 -4.6605120672206425e+01 -4.6611389990388609e+01 -4.6617285955431328e+01 -4.6623564433711962e+01
 -4.6622848218421609e+01 -4.6626865297576863e+01 -4.6639063817406701e+01 -5.9875205930019909e+01 -5.9901828728509770e+01 -5.9903365341925024e+01 -5.9876728813005045e+01 -5.9907109882605759e+01 -5.9880439460690724e+01 -4.6638225042111472e+01
 -4.6644514503089731e+01 -4.6668724485292032e+01 -4.6675027372411776e+01 -4.6660041883301460e+01 -4.6690588128403832e+01 -5.9850218338112668e+01 -5.9865113524830150e+01 -5.9854121041046724e+01 -5.9851797195034599e+01 -5.9866695171079158e+01
 -5.9855689051614327e+01 -4.6638821653303225e+01 -4.6642847817157957e+01 -4.6655073021361048e+01 -4.6645594860980985e+01 -4.6649625109542960e+01 -4.6661862034327228e+01 -5.9910905351001723e+01 -5.9884199941827539e+01 -5.9912492929809673e+01
 -5.9885772695304887e+01 -4.6676081095647802e+01 -4.6706662041700618e+01 -4.6682883080027615e+01 -4.6713478770818291e+01 -7.3133965706757991e+01 -7.3134282802705897e+01 -7.3135050991095397e+01 -7.3218053383353151e+01 -7.3218370933554624e+01
 -7.3219140227226632e+01 -7.3135823005399189e+01 -7.3136143928703191e+01 -7.3219913358437822e+01 -7.3220234747668911e+01 -5.9937362275008731e+01 -5.9981132233587573e+01 -5.9982675874651648e+01 -5.9938891523094128e+01 -5.9986437517381766e+01
 -5.9942617702487247e+01 -4.6709943871647916e+01 -4.6716260476782445e+01 -4.6763166833073043e+01 -4.6769500306936443e+01 -4.6731854968045539e+01 -4.6785136155631527e+01 -6.0034384544425244e+01 -6.0096124027814803e+01 -6.0097674142611460e+01
 -6.0035921037012052e+01 -6.0101451571947599e+01 -6.0039664841852804e+01 -4.6829968940026703e+01 -4.6836320629292594e+01 -4.6911840409762704e+01 -4.6918212219939896e+01 -4.6852001174329708e+01 -4.6933942345799103e+01 -5.9990250275148703e+01
 -5.9946393943682018e+01 -5.9991845069092300e+01 -5.9947973290140148e+01 -4.6747963458775502e+01 -4.6801286861772951e+01 -4.6754794748303951e+01 -4.6808135881628353e+01 -6.0105280328976775e+01 -6.0043458894075769e+01 -6.0106881810440399e+01
 -6.0045045671196689e+01 -4.6868197536247891e+01 -4.6950189616522941e+01 -4.6875065737797811e+01 -4.6957079279357217e+01 -3.3263999096105280e+01 -3.3267445240988678e+01 -3.3288309969129244e+01 -3.3291770347706610e+01 -3.3278325072576578e+01
 -3.3302687941551625e+01 -3.3350239479837633e+01 -3.3353750829117544e+01 -3.3364784611102678e+01 -1.9688206467881798e+01 -1.9687966404194093e+01 -1.9709785361853267e+01 -1.9688411263408383e+01 -1.9773359170212803e+01 -1.9709564625580814e+01
 -1.9773767247801807e+01 -1.9709987980062142e+01 -1.9773554733734908e+01 -1.9690122259962148e+01 -1.9711695391240216e+01 -1.9692906856372090e+01 -1.9778350875630707e+01 -1.9714500359228765e+01 -1.9775486887219191e+01 -1.9877176424590058e+01
 -2.0012591936873338e+01 -1.9877003222612299e+01 -2.0013313562009010e+01 -1.9877495222405184e+01 -2.0012759634604027e+01 -1.9879270026154053e+01 -2.0018494000597830e+01 -1.9882289816929660e+01 -2.0015207549853585e+01 -3.3297833642305342e+01
 -3.3322243918489946e+01 -3.3327463974521464e+01 -3.3351923589418043e+01 -3.3384470862972563e+01 -3.3414277969434345e+01 -1.9698027782608708e+01 -1.9719632933122515e+01 -1.9704761775597749e+01 -1.9790361840503220e+01 -1.9726394262233057e+01
 -1.9783528714433768e+01 -1.9714236120316023e+01 -1.9735882264548174e+01 -1.9725678825116397e+01 -1.9811436064594034e+01 -1.9747352828867271e+01 -1.9799896228579684e+01 -1.9887539332841623e+01 -2.0031047914290649e+01 -1.9894522513037000e+01
 -2.0023840006473904e+01 -1.9904114575300838e+01 -2.0052571838618029e+01 -1.9915793135503588e+01 -2.0040696201783337e+01 -3.3417163170393820e+01 -3.3420745944316984e+01 -3.3431928405385577e+01 -3.3446482805708705e+01 -3.3450099407275566e+01
 -3.3461351123441545e+01 -2.0164925458101223e+01 -2.0307689522705928e+01 -2.0164748106546888e+01 -2.0309188267074472e+01 -2.0165865587028840e+01 -2.0307848564036146e+01 -2.0167928901989413e+01 -2.0315467050946392e+01 -2.0171596715412122e+01
 -2.0311401824253249e+01 -2.0411216651478554e+01 -2.0449477505963866e+01 -2.0411084667362086e+01 -2.0451348695669406e+01 -2.0412858077565271e+01 -2.0449587202357741e+01 -2.0415172716484705e+01 -2.0458176516537961e+01 -2.0419541027821776e+01
 -2.0453687194736265e+01 -3.3451766277927959e+01 -3.3481712188867263e+01 -3.3481257365008659e+01 -3.3511263903748358e+01 -2.0177037835509005e+01 -2.0328793234151739e+01 -2.0184545030347323e+01 -2.0320978436924495e+01 -2.0194221951101639e+01
 -2.0350862516588119e+01 -2.0206355186298573e+01 -2.0338467898279770e+01 -2.0425094254294446e+01 -2.0471878603051518e+01 -2.0433144316329717e+01 -2.0463732425213138e+01 -2.0442805729044892e+01 -2.0494199891718207e+01 -2.0455400876793199e+01
 -2.0481522142712642e+01 -1.2629632701547203e+01 -1.2661629640847144e+01 -1.2632320606005480e+01 -1.2664701639636206e+01 -1.2625366437017854e+01 -1.2657059835636755e+01 -1.2768869930724488e+01 -1.2765428790875369e+01 -1.2760460673175432e+01
 -5.3354164180942538e+00 -5.3176835046015647e+00 -5.3535522577521260e+00 -5.3285429460582794e+00 -5.3000926336070036e+00 -5.3079391963354530e+00 -5.4547825268969437e+00 -5.4254187112977750e+00 -5.4015329352749477e+00 -1.2622342280361808e+01
 -1.2653902376068014e+01 -1.2621487703460808e+01 -1.2653012544072959e+01 -1.2757114777858996e+01 -1.2756198659586772e+01 -5.2896898594939650e+00 -5.2967162696177317e+00 -5.2847912675329445e+00 -5.2916382319523985e+00 -5.3889887012318418e+00
 -5.3835186496390692e+00 -1.2952797613790981e+01 -1.2956391703496521e+01 -1.2947716239989937e+01 -1.3236781030236077e+01 -1.3233569916961359e+01 -1.3229082423125146e+01 -5.6893493299968156e+00 -5.6570406620311218e+00 -5.6306906795896747e+00
 -6.1408215376859525e+00 -6.1099881291315983e+00 -6.0840307197514436e+00 -1.2944407555254237e+01 -1.2943631993527855e+01 -1.3226335666033846e+01 -1.3226030147520650e+01 -5.6171579023466984e+00 -5.6114745210508374e+00 -6.0710041971325195e+00
 -6.0658362566935802e+00 -3.5101508145309523e+00 -3.4754972280635847e+00 -3.5045566345392936e+00 -3.4382634851213667e+00 -1.7064020035886722e+00 -1.6500472628044798e+00 -1.6700675558603333e+00 -1.5159114632845772e+00 -1.4444328271856184e-02
 5.1450538770248966e-02 4.1562331179962948e-02 3.4985746931096318e-01 4.2245444382167946e-01 4.2262526824687036e-01 4.2260238523081278e-01 4.3836082405079024e-01 -3.4539375198451148e+00 -3.4107099283237940e+00 -1.6279416318978392e+00
 -1.4867407855431338e+00 6.5491471724571607e-02 3.5484307564610867e-01 4.2265776514064102e-01 4.3837134781772480e-01 -3.5790942126993253e+00 -3.5022819419872264e+00 -1.7123946922364741e+00 -1.5400010448640793e+00 2.6993538198832955e-02