DF-ISE text

Info {
  version = 1.0
  type    = dataset
  dimension   = 3
  nb_vertices = 5293
  nb_edges    = 23303
  nb_faces    = 30690
  nb_elements = 12980
  nb_regions  = 3
  datasets    = [ "ElectrostaticPotential" "ContactExternalVoltage" "ContactCurrentFlux" "ContactCharge" "eQuasiFermiPotential" "hQuasiFermiPotential" "QuasiFermiPotential" "LatticeTemperature" ]
  functions   = [ ElectrostaticPotential ContactExternalVoltage ContactCurrentFlux ContactCharge eQuasiFermiPotential hQuasiFermiPotential QuasiFermiPotential LatticeTemperature ]
}

Data {

  Dataset ("ElectrostaticPotential") {
    function  = ElectrostaticPotential
    type      = scalar
    dimension = 1
    location  = vertex
    validity  = [ "substrate" ]
    Values (5293) {
 -2.7537888985310792e+02 -2.7537067153445497e+02 -2.7537888985310792e+02 -2.7537888985310792e+02 -2.7537067208226728e+02 -2.7537067167140242e+02 -2.7539459903196263e+02 -2.7538638156204854e+02 -2.7535550508530673e+02 -2.7535550615829288e+02
 -2.7535550535342099e+02 -2.7537121855935419e+02 -2.7532328170268750e+02 -2.7532328923199901e+02 -2.7532328337377083e+02 -2.7533907083326221e+02 -2.7524136119280428e+02 -2.7524273873604881e+02 -2.7524161169451037e+02 -2.7527990126589998e+02
 -2.7423499474596116e+02 -2.7425013042785520e+02 -2.7423738942617507e+02 -2.7431495545474831e+02 -2.7316194363189146e+02 -2.7318370520394308e+02 -2.7316494551673293e+02 -2.7322335243262256e+02 -2.7208598014934063e+02 -2.7211073825560675e+02
 -2.7208894896849222e+02 -2.7213122033003776e+02 -2.7537888985310792e+02 -2.7537067167140702e+02 -2.7539459903196263e+02 -2.7538638169898888e+02 -2.7535550535348528e+02 -2.7537121882696459e+02 -2.7532328346501794e+02 -2.7533907205169908e+02
 -2.7524165217731866e+02 -2.7528000060948114e+02 -2.7423794987544926e+02 -2.7431935478330013e+02 -2.7316587282447477e+02 -2.7322893301848330e+02 -2.7209010424032812e+02 -2.7213669254720844e+02 -2.6342806669707176e+02 -2.6343639395016407e+02
 -2.6342850874626396e+02 -2.6343799627757312e+02 -2.6342872191525714e+02 -2.6343869847844064e+02 -2.7537888985310792e+02 -2.7537067208227353e+02 -2.7539459903196263e+02 -2.7538638159628726e+02 -2.7535550615851145e+02 -2.7537121862627561e+02
 -2.7532328960342409e+02 -2.7533907117688921e+02 -2.7524290395470035e+02 -2.7527996071449763e+02 -2.7425255860299478e+02 -2.7431835922201617e+02 -2.7318810594981602e+02 -2.7322903354674503e+02 -2.7211673431336732e+02 -2.7213848416034438e+02
 -2.7539459903196263e+02 -2.7538638173322812e+02 -2.7537121889388851e+02 -2.7533907239870695e+02 -2.7528006307199155e+02 -2.7432298634073760e+02 -2.7323499939837944e+02 -2.7214443757698393e+02 -2.6344151613875687e+02 -2.6344329466845164e+02
 -2.6344408564689274e+02 -2.7537888985310792e+02 -2.7537067167140185e+02 -2.7539459903196263e+02 -2.7538638154712328e+02 -2.7535550535340320e+02 -2.7537121853018152e+02 -2.7532328334417542e+02 -2.7533907069008700e+02 -2.7524159853984310e+02
 -2.7527988205979352e+02 -2.7423720638203901e+02 -2.7431413082825497e+02 -2.7316462122615064e+02 -2.7322214798073804e+02 -2.7208851674366031e+02 -2.7212984854005697e+02 -2.7537888985310792e+02 -2.7537067151952880e+02 -2.7537717774777701e+02
 -2.7536895993224306e+02 -2.7535550505604999e+02 -2.7535379354297407e+02 -2.7532328146263745e+02 -2.7532155549143766e+02 -2.7524130855666652e+02 -2.7523521517314356e+02 -2.7423449116071015e+02 -2.7424152743156907e+02 -2.7316120213650674e+02
 -2.7317770574917643e+02 -2.7208511290448513e+02 -2.7210678345364721e+02 -2.6342827634802234e+02 -2.6343757045432852e+02 -2.6342770936925297e+02 -2.6343566790543935e+02 -2.7539459903196263e+02 -2.7538638158136183e+02 -2.7537121859710226e+02
 -2.7533907103272242e+02 -2.7527994062287149e+02 -2.7431746990752640e+02 -2.7322771195177978e+02 -2.7213695605606910e+02 -2.7537717774777701e+02 -2.7536895992420125e+02 -2.7535379352752153e+02 -2.7532155588990764e+02 -2.7523540653208329e+02
 -2.7424377450735699e+02 -2.7318182460086297e+02 -2.7211244989635946e+02 -2.6344280106593123e+02 -2.6344068259673435e+02 -2.5473510913955425e+02 -2.5473758288446169e+02 -2.5473515577674769e+02 -2.5473770866633993e+02 -2.5473516820354624e+02
 -2.5473776149924913e+02 -2.4602197778210453e+02 -2.4602277781651637e+02 -2.4602198065709226e+02 -2.4602278601637283e+02 -2.4602197648336357e+02 -2.4602278423953089e+02 -2.5474019116402530e+02 -2.5474033517806561e+02 -2.5474039615929127e+02
 -2.4602397327285965e+02 -2.4602398294685477e+02 -2.4602398113129067e+02 -2.5473508018154087e+02 -2.5473760075814948e+02 -2.5473499972807414e+02 -2.5473742260764055e+02 -2.4602195937625498e+02 -2.4602275950579420e+02 -2.4602194748959460e+02
 -2.4602273984639200e+02 -2.5474020931720366e+02 -2.5474000453617313e+02 -2.4602395232883939e+02 -2.4602392942264586e+02 -2.7537888985310792e+02 -2.7537067208227381e+02 -2.7539459903196263e+02 -2.7538638159628766e+02 -2.7535550615855306e+02
 -2.7537121862627862e+02 -2.7532328967928731e+02 -2.7533907118556567e+02 -2.7524293772683791e+02 -2.7527996843606866e+02 -2.7425305922192302e+02 -2.7431887813102463e+02 -2.7318904748967879e+02 -2.7323002563205273e+02 -2.7211806856766390e+02
 -2.7213989060766693e+02 -2.7539459903196263e+02 -2.7538638173322857e+02 -2.7537121889389158e+02 -2.7533907240754212e+02 -2.7528007093954818e+02 -2.7432351905788357e+02 -2.7323601770799701e+02 -2.7214588006786897e+02 -2.6344366368447305e+02
 -2.6344546005753227e+02 -2.6344625940546098e+02 -2.7537888985310792e+02 -2.7537067208227387e+02 -2.7539459903196263e+02 -2.7538638159628772e+02 -2.7535550615856016e+02 -2.7537121862627907e+02 -2.7532328969229826e+02 -2.7533907118697994e+02
 -2.7524294351913471e+02 -2.7527996969537691e+02 -2.7425314521873031e+02 -2.7431896282230389e+02 -2.7318921067595920e+02 -2.7323019008724276e+02 -2.7211830289478445e+02 -2.7214012818868173e+02 -2.7539459903196263e+02 -2.7538638173322857e+02
 -2.7537121889389198e+02 -2.7533907240895513e+02 -2.7528007219861900e+02 -2.7432360438846064e+02 -2.7323618350076043e+02 -2.7214611959674522e+02 -2.6344415880639735e+02 -2.6344595649980766e+02 -2.6344675613541142e+02 -2.7539459903196263e+02
 -2.7538638158136223e+02 -2.7537121859710521e+02 -2.7533907104130043e+02 -2.7527994825477475e+02 -2.7431798168324281e+02 -2.7322869017660298e+02 -2.7213834288848869e+02 -2.7537717774777701e+02 -2.7536895992420153e+02 -2.7535379352758417e+02
 -2.7532155599643681e+02 -2.7523545048194569e+02 -2.7424426858029597e+02 -2.7318274556860882e+02 -2.7211375249891483e+02 -2.6344495078486017e+02 -2.6344280709206674e+02 -2.7539459903196263e+02 -2.7538638158136229e+02 -2.7537121859710567e+02
 -2.7533907104270634e+02 -2.7527994950632319e+02 -2.7431806566192745e+02 -2.7322885320096060e+02 -2.7213857838821826e+02 -2.7537717774777701e+02 -2.7536895992420159e+02 -2.7535379352759509e+02 -2.7532155601496657e+02 -2.7523545812655425e+02
 -2.7424435463734818e+02 -2.7318290723557709e+02 -2.7211398397470816e+02 -2.6344544460926386e+02 -2.6344329846790265e+02 -2.5474168703515898e+02 -2.5474183334941824e+02 -2.5474189444078345e+02 -2.4602480336717525e+02 -2.4602481317176668e+02
 -2.4602481094718851e+02 -2.5474206619835397e+02 -2.5474221266943570e+02 -2.5474227352631908e+02 -2.4602501666742023e+02 -2.4602502645429860e+02 -2.4602502408659288e+02 -2.5474170166031831e+02 -2.5474149205903538e+02 -2.4602478084581850e+02
 -2.4602475709143943e+02 -2.5474207976531838e+02 -2.5474186949580695e+02 -2.4602499371219182e+02 -2.4602496980215926e+02 -2.3729237013626442e+02 -2.3729265850812234e+02 -2.3729236979410851e+02 -2.3729265848241084e+02 -2.3729236776497928e+02
 -2.3729265645245886e+02 -2.2854733525718780e+02 -2.2854744292652805e+02 -2.2854733507567596e+02 -2.2854744274955780e+02 -2.2854733454226735e+02 -2.2854744218506244e+02 -2.3729319013210170e+02 -2.3729319015986962e+02 -2.3729318790736662e+02
 -2.2854767046163474e+02 -2.2854767027100388e+02 -2.2854766964863563e+02 -2.3729236421156830e+02 -2.3729265204411777e+02 -2.3729236222673026e+02 -2.3729264937297623e+02 -2.2854733388185718e+02 -2.2854744144168475e+02 -2.2854733356808120e+02
 -2.2854744107552929e+02 -2.3729318284303960e+02 -2.3729317974954446e+02 -2.2854766881479725e+02 -2.2854766840062271e+02 -2.1101206413227359e+02 -2.1101209670631712e+02 -2.1101206411136684e+02 -2.1101209668466154e+02 -2.1101206405789051e+02
 -2.1101209662844218e+02 -2.1101217581760608e+02 -2.1101217579423707e+02 -2.1101217573319059e+02 -2.1101206400025336e+02 -2.1101209656683014e+02 -2.1101206397507156e+02 -2.1101209653960521e+02 -2.1101217566581445e+02 -2.1101217563591152e+02
 -2.3729360483687736e+02 -2.3729360483359795e+02 -2.3729360241792543e+02 -2.2854786472048255e+02 -2.2854786451681170e+02 -2.2854786385538981e+02 -2.3729370792721929e+02 -2.3729370790882462e+02 -2.3729370544235113e+02 -2.2854791482947627e+02
 -2.2854791462122367e+02 -2.2854791394733073e+02 -2.3729359707549185e+02 -2.3729359382939734e+02 -2.2854786297226403e+02 -2.2854786253448833e+02 -2.3729370002990481e+02 -2.3729369674878305e+02 -2.2854791304979685e+02 -2.2854791260546273e+02
 -2.1101226211835075e+02 -2.1101226209364617e+02 -2.1101226202912741e+02 -2.1101231907834722e+02 -2.1101231905316845e+02 -2.1101231898745269e+02 -2.1101226195793683e+02 -2.1101226192635036e+02 -2.1101231891499248e+02 -2.1101231888285849e+02
 -1.9341712009157604e+02 -1.9341715203764613e+02 -1.9341712008947010e+02 -1.9341715203546593e+02 -1.9341712008425506e+02 -1.9341715203005504e+02 -1.9341724017109865e+02 -1.9341724016877455e+02 -1.9341724016299776e+02 -1.9341712007881625e+02
 -1.9341715202439212e+02 -1.9341712007645614e+02 -1.9341715202193171e+02 -1.9341724015694271e+02 -1.9341724015431203e+02 -1.7576250750042928e+02 -1.7576256963993401e+02 -1.7576250750017121e+02 -1.7576256963966802e+02 -1.7576250749950506e+02
 -1.7576256963898700e+02 -1.7576274605868363e+02 -1.7576274605840584e+02 -1.7576274605769629e+02 -1.7576250749873535e+02 -1.7576256963820265e+02 -1.7576250749834219e+02 -1.7576256963780466e+02 -1.7576274605688292e+02 -1.7576274605647276e+02
 -1.9341736467729945e+02 -1.9341736467485887e+02 -1.9341736466879306e+02 -1.9341750059076773e+02 -1.9341750058827458e+02 -1.9341750058207975e+02 -1.9341736466243830e+02 -1.9341736465968046e+02 -1.9341750057559312e+02 -1.9341750057277994e+02
 -1.7576300863599596e+02 -1.7576300863570626e+02 -1.7576300863496792e+02 -1.7576331617304473e+02 -1.7576331617273985e+02 -1.7576331617196439e+02 -1.7576300863412558e+02 -1.7576300863370358e+02 -1.7576331617108460e+02 -1.7576331617064713e+02
 -1.5804798469543951e+02 -1.5804811702769609e+02 -1.5804798469544812e+02 -1.5804811702770184e+02 -1.5804798469542760e+02 -1.5804811702767879e+02 -1.5804849421484184e+02 -1.5804849421484573e+02 -1.5804849421481876e+02 -1.5804798469530400e+02
 -1.5804811702755353e+02 -1.5804798469517536e+02 -1.5804811702742535e+02 -1.5804849421468973e+02 -1.5804849421456007e+02 -1.4027299006930693e+02 -1.4027327183291305e+02 -1.4027299007041776e+02 -1.4027327183402167e+02 -1.4027299007305757e+02
 -1.4027327183666020e+02 -1.4027407618019410e+02 -1.4027407618130161e+02 -1.4027407618393786e+02 -1.4027299007559100e+02 -1.4027327183919314e+02 -1.4027299007655850e+02 -1.4027327184016136e+02 -1.4027407618646873e+02 -1.4027407618743618e+02
 -1.5804905965895514e+02 -1.5804905965895529e+02 -1.5804905965891928e+02 -1.5804972812514842e+02 -1.5804972812513586e+02 -1.5804972812506890e+02 -1.5804905965878146e+02 -1.5804905965864842e+02 -1.5804972812489979e+02 -1.5804972812475393e+02
 -1.4027528543078552e+02 -1.4027528543188808e+02 -1.4027528543451257e+02 -1.4027672039852052e+02 -1.4027672039960456e+02 -1.4027672040218391e+02 -1.4027528543703190e+02 -1.4027528543799482e+02 -1.4027672040465788e+02 -1.4027672040560216e+02
 -2.7537888985310792e+02 -2.7537067208227381e+02 -2.7539459903196263e+02 -2.7538638159628766e+02 -2.7535550615854982e+02 -2.7537121862627845e+02 -2.7532328967335758e+02 -2.7533907118493363e+02 -2.7524293508695411e+02 -2.7527996787321740e+02
 -2.7425302000001801e+02 -2.7431884027241028e+02 -2.7318897246989559e+02 -2.7322995147515496e+02 -2.7211795940920086e+02 -2.7213978194144914e+02 -2.7539459903196263e+02 -2.7538638173322857e+02 -2.7537121889389141e+02 -2.7533907240691690e+02
 -2.7528007038245249e+02 -2.7432348129369188e+02 -2.7323594366928808e+02 -2.7214577151666742e+02 -2.6344336769525637e+02 -2.6344516410950092e+02 -2.6344596345512036e+02 -2.7537888985310792e+02 -2.7537067208227342e+02 -2.7539459903196263e+02
 -2.7538638159628726e+02 -2.7535550615849974e+02 -2.7537121862627492e+02 -2.7532328958223610e+02 -2.7533907117464111e+02 -2.7524289452372727e+02 -2.7527995871314783e+02 -2.7425241906770964e+02 -2.7431822474157792e+02 -2.7318784281850026e+02
 -2.7322877371809011e+02 -2.7211635867416550e+02 -2.7213811048307105e+02 -2.7539459903196263e+02 -2.7538638173322812e+02 -2.7537121889388783e+02 -2.7533907239648397e+02 -2.7528006109174817e+02 -2.7432285223653201e+02 -2.7323474005556454e+02
 -2.7214406438794884e+02 -2.6344075074278948e+02 -2.6344252944738872e+02 -2.6344332044334323e+02 -2.7539459903196263e+02 -2.7538638158136223e+02 -2.7537121859710510e+02 -2.7533907104066520e+02 -2.7527994768929301e+02 -2.7431794373617237e+02
 -2.7322861588004275e+02 -2.7213823405138646e+02 -2.7537717774777701e+02 -2.7536895992420153e+02 -2.7535379352757917e+02 -2.7532155598785005e+02 -2.7523544693931092e+02 -2.7424422866720596e+02 -2.7318267001245374e+02 -2.7211364292433490e+02
 -2.6344465475529864e+02 -2.6344251097479514e+02 -2.7539459903196263e+02 -2.7538638158136177e+02 -2.7537121859710157e+02 -2.7533907103046272e+02 -2.7527993861182227e+02 -2.7431733509161984e+02 -2.7322745159297500e+02 -2.7213658173150850e+02
 -2.7537717774777701e+02 -2.7536895992420119e+02 -2.7535379352750329e+02 -2.7532155585916496e+02 -2.7523539385094762e+02 -2.7424363240004118e+02 -2.7318155943481088e+02 -2.7211207266121829e+02 -2.6344203557686734e+02 -2.6343991677192980e+02
 -2.5474137730325580e+02 -2.5474152361856699e+02 -2.5474158470183323e+02 -2.4602455766225668e+02 -2.4602456746593245e+02 -2.4602456523796857e+02 -2.5473949392214615e+02 -2.5473963794514350e+02 -2.5473969890735327e+02 -2.4602346273380562e+02
 -2.4602347240605457e+02 -2.4602347058202440e+02 -2.5474139190219680e+02 -2.5474118228763859e+02 -2.4602453513178116e+02 -2.4602451137485096e+02 -2.5473951200473218e+02 -2.5473930717822699e+02 -2.4602344176598478e+02 -2.4602341885210643e+02
 -2.7537888985310792e+02 -2.7537067207480351e+02 -2.7539459903196263e+02 -2.7538638155831666e+02 -2.7535550614362649e+02 -2.7537121855205743e+02 -2.7532328904544482e+02 -2.7533907078946777e+02 -2.7524268282765183e+02 -2.7527988938848455e+02
 -2.7424943361047184e+02 -2.7431428669122437e+02 -2.7318251789865292e+02 -2.7322218222531262e+02 -2.7210917322909535e+02 -2.7212966443406862e+02 -2.7539459903196263e+02 -2.7538638169525706e+02 -2.7537121881966806e+02 -2.7533907200805697e+02
 -2.7527998885612789e+02 -2.7431868802833435e+02 -2.7322776526609346e+02 -2.7213513898396758e+02 -2.6343469983744410e+02 -2.6343630288120454e+02 -2.6343700526777855e+02 -2.7537717774777707e+02 -2.7536895928509534e+02 -2.7537717774777707e+02
 -2.7536895943279058e+02 -2.7535379227417297e+02 -2.7535379256352388e+02 -2.7532154502508854e+02 -2.7532154705327747e+02 -2.7523306200145890e+02 -2.7523340518757715e+02 -2.7422388926723886e+02 -2.7422634225292796e+02 -2.7315247830169415e+02
 -2.7315551517574943e+02 -2.7207801014341510e+02 -2.7208099714126070e+02 -2.7537717774777707e+02 -2.7536895943279563e+02 -2.7535379256362057e+02 -2.7532154718987590e+02 -2.7523346137700577e+02 -2.7422691574171836e+02 -2.7315645230502957e+02
 -2.7208215917397695e+02 -2.6342481831081165e+02 -2.6342526172823460e+02 -2.6342547544498586e+02 -2.7539459903196263e+02 -2.7538638154339134e+02 -2.7537121852288465e+02 -2.7533907064623281e+02 -2.7527987013348064e+02 -2.7431346069712112e+02
 -2.7322097578780080e+02 -2.7212829038570351e+02 -2.7537717774777701e+02 -2.7536895992419363e+02 -2.7535379352712187e+02 -2.7532155524398343e+02 -2.7523514022618554e+02 -2.7424081728262058e+02 -2.7317650917820930e+02 -2.7210521222825508e+02
 -2.6343587636574574e+02 -2.6343397263100672e+02 -2.7537717774777707e+02 -2.7536895943278984e+02 -2.7535379256349580e+02 -2.7532154700884405e+02 -2.7523338688390578e+02 -2.7422615435220206e+02 -2.7315518652810403e+02 -2.7208056111482813e+02
 -2.7537717774777707e+02 -2.7536895926899757e+02 -2.7535379224258168e+02 -2.7532154471744622e+02 -2.7523298933809133e+02 -2.7422337091669414e+02 -2.7315172602090712e+02 -2.7207713524406461e+02 -2.6342502837236447e+02 -2.6342445947359590e+02
 -2.5473637951229588e+02 -2.5473650533934352e+02 -2.5473655814943754e+02 -2.4602200157865377e+02 -2.4602200977740893e+02 -2.4602200798565823e+02 -2.5473346288278000e+02 -2.5473350960978343e+02 -2.5473352203118159e+02 -2.4602104716987401e+02
 -2.4602105004536455e+02 -2.4602104585258218e+02 -2.5473639725822736e+02 -2.5473621897912295e+02 -2.4602198322246352e+02 -2.4602196354439823e+02 -2.5473343378363580e+02 -2.5473335312952867e+02 -2.4602102870030842e+02 -2.4602101678031130e+02
 -2.3729344229549829e+02 -2.3729344229180592e+02 -2.3729343987500056e+02 -2.2854778322070689e+02 -2.2854778301688756e+02 -2.2854778235509121e+02 -2.3729286717459544e+02 -2.3729286720135244e+02 -2.3729286494592139e+02 -2.2854751213861888e+02
 -2.2854751194755772e+02 -2.2854751132406923e+02 -2.3729343453125335e+02 -2.3729343128455110e+02 -2.2854778147156676e+02 -2.2854778103361650e+02 -2.3729285987799511e+02 -2.3729285678273712e+02 -2.2854751048896387e+02 -2.2854751007417613e+02
 -2.1101232867577497e+02 -2.1101232865100278e+02 -2.1101232858631511e+02 -2.1101229756988880e+02 -2.1101229754626726e+02 -2.1101229748456285e+02 -2.1101232851494584e+02 -2.1101232848328056e+02 -2.1101229741642683e+02 -2.1101229738613486e+02
 -2.3729219808971226e+02 -2.3729219806213021e+02 -2.3729219602621728e+02 -2.2854722418168564e+02 -2.2854722400365071e+02 -2.2854722343618263e+02 -2.3729184641857518e+02 -2.3729184607354986e+02 -2.3729184403438930e+02 -2.2854709186119351e+02
 -2.2854709167757974e+02 -2.2854709113755263e+02 -2.3729219160966016e+02 -2.3729218893375545e+02 -2.2854722268888997e+02 -2.2854722232021155e+02 -2.3729184046428617e+02 -2.3729183846538655e+02 -2.2854709046576482e+02 -2.2854709014058653e+02
 -2.1101225402445093e+02 -2.1101225400200161e+02 -2.1101225394353969e+02 -2.1101223353147668e+02 -2.1101223350877135e+02 -2.1101223344950623e+02 -2.1101225387883977e+02 -2.1101225384944721e+02 -2.1101223338136589e+02 -2.1101223334482461e+02
 -1.9341762474439983e+02 -1.9341762474189963e+02 -1.9341762473568477e+02 -1.9341772052309040e+02 -1.9341772052053091e+02 -1.9341772051413875e+02 -1.9341762472917165e+02 -1.9341762472634363e+02 -1.9341772050736790e+02 -1.9341772050436646e+02
 -1.7576362134356376e+02 -1.7576362134321514e+02 -1.7576362134232929e+02 -1.7576387817094366e+02 -1.7576387817043195e+02 -1.7576387816911063e+02 -1.7576362134133029e+02 -1.7576362134083894e+02 -1.7576387816758506e+02 -1.7576387816680537e+02
 -1.9341777938634374e+02 -1.9341777938339581e+02 -1.9341777937580682e+02 -1.9341779900311752e+02 -1.9341779899924202e+02 -1.9341779898829694e+02 -1.9341777936711676e+02 -1.9341777936248806e+02 -1.9341779897228975e+02 -1.9341779895803708e+02
 -1.7576404878223568e+02 -1.7576404878120442e+02 -1.7576404877835063e+02 -1.7576410849473194e+02 -1.7576410849270655e+02 -1.7576410848630294e+02 -1.7576404877453862e+02 -1.7576404877194568e+02 -1.7576410847483115e+02 -1.7576410846194355e+02
 -1.5805039822042752e+02 -1.5805039822036713e+02 -1.5805039822017983e+02 -1.5805096759373214e+02 -1.5805096759349902e+02 -1.5805096759285274e+02 -1.5805039821988157e+02 -1.5805039821967770e+02 -1.5805096759200410e+02 -1.5805096759150157e+02
 -1.4027816482436825e+02 -1.4027816482539129e+02 -1.4027816482781850e+02 -1.4027939691659910e+02 -1.4027939691742944e+02 -1.4027939691934958e+02 -1.4027816483013157e+02 -1.4027816483100483e+02 -1.4027939692106418e+02 -1.4027939692161860e+02
 -1.5805134870324648e+02 -1.5805134870248284e+02 -1.5805134870027663e+02 -1.5805148265613425e+02 -1.5805148265437060e+02 -1.5805148264858937e+02 -1.5805134869710810e+02 -1.5805134869475285e+02 -1.5805148263761799e+02 -1.5805148262434795e+02
 -1.4028022411536440e+02 -1.4028022411564461e+02 -1.4028022411595700e+02 -1.4028051534536689e+02 -1.4028051534463816e+02 -1.4028051534134502e+02 -1.4028022411529923e+02 -1.4028022411395474e+02 -1.4028051533274103e+02 -1.4028051531981743e+02
 -1.2243632807923929e+02 -1.2243692304843044e+02 -1.2243632809261258e+02 -1.2243692306180539e+02 -1.2243632812485717e+02 -1.2243692309405766e+02 -1.2243862527733899e+02 -1.2243862529071865e+02 -1.2243862532298277e+02 -1.2243632815699394e+02
 -1.2243692312620274e+02 -1.2243632817021931e+02 -1.2243692313943231e+02 -1.2243862535513989e+02 -1.2243862536837450e+02 -1.0453549263144481e+02 -1.0453673152085003e+02 -1.0453549278311971e+02 -1.0453673167258931e+02 -1.0453549314930027e+02
 -1.0453673203892870e+02 -1.0454029037812897e+02 -1.0454029053000976e+02 -1.0454029089669132e+02 -1.0453549351543644e+02 -1.0453673240522434e+02 -1.0453549366702363e+02 -1.0453673255687809e+02 -1.0454029126332945e+02 -1.0454029141512518e+02
 -1.2244119507924286e+02 -1.2244119509260781e+02 -1.2244119512483650e+02 -1.2244426158525656e+02 -1.2244426159854423e+02 -1.2244426163058597e+02 -1.2244119515695847e+02 -1.2244119517017880e+02 -1.2244426166252073e+02 -1.2244426167566375e+02
 -1.0454570420738007e+02 -1.0454570435926901e+02 -1.0454570472597058e+02 -1.0455223139336076e+02 -1.0455223154467114e+02 -1.0455223190997559e+02 -1.0454570509262921e+02 -1.0454570524443376e+02 -1.0455223227523693e+02 -1.0455223242646296e+02
 -8.6565327881823237e+01 -8.6567841933161731e+01 -8.6565329592827268e+01 -8.6567843645141068e+01 -8.6565333725155313e+01 -8.6567847779828980e+01 -8.6575117397913658e+01 -8.6575119112334463e+01 -8.6575123252921202e+01 -8.6565337859711605e+01
 -8.6567851916748666e+01 -8.6565339572897386e+01 -8.6567853630914513e+01 -8.6575127395745753e+01 -8.6575129112359207e+01 -6.8515582579540066e+01 -6.8520438518704154e+01 -6.8515601853040806e+01 -6.8520457805171063e+01 -6.8515648438804632e+01
 -6.8520504422326695e+01 -6.8534680756099760e+01 -6.8534700078080192e+01 -6.8534746781123616e+01 -6.8515695104091577e+01 -6.8520551119122814e+01 -6.8515714457086332e+01 -6.8520570485201631e+01 -6.8534793564015430e+01 -6.8534812965815348e+01
 -8.6586341715270166e+01 -8.6586343431608668e+01 -8.6586347576830121e+01 -8.6600137440865709e+01 -8.6600139153422305e+01 -8.6600143289516396e+01 -8.6586351724296577e+01 -8.6586353442835048e+01 -8.6600147427859838e+01 -8.6600149142621078e+01
 -6.8557225277769746e+01 -6.8557244642175206e+01 -6.8557291447816368e+01 -6.8585942972428768e+01 -6.8585962332292709e+01 -6.8586009127156771e+01 -6.8557338333551044e+01 -6.8557357778021071e+01 -6.8586056002375187e+01 -6.8586075442564550e+01
 -5.0366959564995483e+01 -5.0375459297521985e+01 -5.0367176053092408e+01 -5.0375675944302579e+01 -5.0367700565591207e+01 -5.0376200843317484e+01 -5.0401003227076529e+01 -5.0401220335434488e+01 -5.0401746354131127e+01 -5.0368227782233411e+01
 -5.0376728451032569e+01 -5.0368446975847483e+01 -5.0376947807852666e+01 -5.0402275088807365e+01 -5.0402494914453790e+01 -4.1243545845075765e+01 -4.1246282484572667e+01 -4.1244598163283790e+01 -4.1253756975104494e+01 -4.1254810078648134e+01
 -4.1247327667968747e+01 -4.1247163161917939e+01 -4.1257377039221524e+01 -4.1249875008707257e+01 -3.2074967080320789e+01 -3.2079280131120413e+01 -3.2077738355254311e+01 -3.2082051824964324e+01 -3.2086129273932144e+01 -3.2090445438562291e+01
 -3.2089933209997994e+01 -3.2092706223263512e+01 -3.2101106923015770e+01 -4.1266893257440216e+01 -4.1285116940313578e+01 -4.1286172366071249e+01 -4.1267939980117987e+01 -4.1288745006850803e+01 -4.1270491119548552e+01 -3.2100526788054793e+01
 -3.2104846391664069e+01 -3.2121433623897587e+01 -3.2125758997883800e+01 -3.2115516599705721e+01 -3.2136443471977060e+01 -4.1249764258289616e+01 -4.1259980182268968e+01 -4.1252457793071152e+01 -4.1250852710760164e+01 -4.1261069503478474e+01
 -4.1253538455054652e+01 -3.2100949649687472e+01 -3.2103724353621537e+01 -3.2112132863273025e+01 -3.2105626730797340e+01 -3.2108402212128560e+01 -3.2116814123636452e+01 -4.1291353928903206e+01 -4.1273077810367674e+01 -4.1292445670383010e+01
 -4.1274160118132357e+01 -3.2126551798732862e+01 -3.2147493386709648e+01 -3.2131237024274746e+01 -3.2152184828530260e+01 -5.0443383040826646e+01 -5.0443600842466751e+01 -5.0444128540903286e+01 -5.0501064083197733e+01 -5.0501282351606434e+01
 -5.0501811185476285e+01 -5.0444658963721132e+01 -5.0444879491038257e+01 -5.0502342755667733e+01 -5.0502563761674857e+01 -4.1309465683290050e+01 -4.1339414901139911e+01 -4.1340474374522181e+01 -4.1310515540924087e+01 -4.1343056861361539e+01
 -4.1313074314041046e+01 -3.2149630823658455e+01 -3.2153963247572044e+01 -3.2185993280284023e+01 -3.2190336015298669e+01 -3.2164665026741325e+01 -3.2201063092004347e+01 -4.1375895196735044e+01 -4.1418175948902913e+01 -4.1419240351516109e+01
 -4.1376949821710745e+01 -4.1421834873152875e+01 -4.1379520200587379e+01 -3.2231618973373720e+01 -3.2235974042384278e+01 -3.2287557231640420e+01 -3.2291927281997630e+01 -3.2246731437001969e+01 -3.2302721684225638e+01 -4.1345675733024265e+01
 -4.1315668728091168e+01 -4.1346771625407044e+01 -4.1316754259984677e+01 -3.2175732637812352e+01 -3.2212156567143332e+01 -3.2180431518606511e+01 -3.2216866323380508e+01 -4.1424465968125247e+01 -4.1382126355552344e+01 -4.1425566977835395e+01
 -4.1383216789649616e+01 -3.2257855986710418e+01 -3.2313884417328723e+01 -3.2262578830641431e+01 -3.2318623414217569e+01 -2.2834860319002548e+01 -2.2837354502397989e+01 -2.2851575045290744e+01 -2.2854071197804359e+01 -2.2845092483231689e+01
 -2.2861816770568630e+01 -2.2894212318464284e+01 -2.2896718373211598e+01 -2.2904489685605352e+01 -1.3425259561692172e+01 -1.3424847158861951e+01 -1.3440074505868575e+01 -1.3425987404243259e+01 -1.3483394943706660e+01 -1.3439673772371343e+01
 -1.3484495248113827e+01 -1.3440799136639848e+01 -1.3483776801509157e+01 -1.3427880828681118e+01 -1.3442683159769103e+01 -1.3430479754807966e+01 -1.3488978488864401e+01 -1.3445287051080864e+01 -1.3486363949246583e+01 -1.3554808127471013e+01
 -1.3647662131163564e+01 -1.3554457567839872e+01 -1.3648797587081773e+01 -1.3555555809762339e+01 -1.3647972741410204e+01 -1.3557406051236960e+01 -1.3653379667931986e+01 -1.3560066540525694e+01 -1.3650632244616386e+01 -2.2858712812015444e+01
 -2.2875450382218190e+01 -2.2879132469178913e+01 -2.2895889264763273e+01 -2.2918159943163332e+01 -2.2938648054304597e+01 -1.3434573077208713e+01 -1.3449378473444860e+01 -1.3439630746454080e+01 -1.3498162084978816e+01 -1.3454446533971174e+01
 -1.3493071207937716e+01 -1.3446428137402384e+01 -1.3461246003310936e+01 -1.3454443894624958e+01 -1.3513032855093622e+01 -1.3469275718950865e+01 -1.3504972106400562e+01 -1.3564154477456150e+01 -1.3662690909555778e+01 -1.3569301814619106e+01
 -1.3657454551986786e+01 -1.3576116718865539e+01 -1.3677725425171152e+01 -1.3584245079306939e+01 -1.3669498060077016e+01 -2.2940441454851360e+01 -2.2942963389451599e+01 -2.2950769171553116e+01 -2.2960760161834006e+01 -2.2963289729178598e+01
 -2.2971111482998168e+01 -1.3753056721189409e+01 -1.3852193590362944e+01 -1.3752796586962225e+01 -1.3853510690719531e+01 -1.3754023516637078e+01 -1.3852387044867513e+01 -1.3755836925920329e+01 -1.3858323607120852e+01 -1.3758721783421985e+01
 -1.3855287883684388e+01 -1.3924631460760251e+01 -1.3951436283520243e+01 -1.3924496278918937e+01 -1.3952839117219506e+01 -1.3925877937984909e+01 -1.3951541157829022e+01 -1.3927619172674770e+01 -1.3957760953318219e+01 -1.3930773400505554e+01
 -1.3954556757518276e+01 -2.2964481681709643e+01 -2.2985022694562314e+01 -2.2984842732904095e+01 -2.3005406590741927e+01 -1.3762762552441439e+01 -1.3867818296203742e+01 -1.3768128427586122e+01 -1.3862312437527503e+01 -1.3774901556486267e+01
 -1.3883048212745384e+01 -1.3783266970106764e+01 -1.3874537012629613e+01 -1.3934715067589757e+01 -1.3967340138794899e+01 -1.3940331810187532e+01 -1.3961675714183988e+01 -1.3947001674196827e+01 -1.3982658199179893e+01 -1.3955628190800720e+01
 -1.3973982662692332e+01 -8.5307738621193785e+00 -8.5531581144485695e+00 -8.5314023544179545e+00 -8.5539394147549235e+00 -8.5299995467058398e+00 -8.5522486567284108e+00 -8.6251038544228980e+00 -8.6241577276749517e+00 -8.6230490168877267e+00
 -3.4589756514999430e+00 -3.4540840821606191e+00 -3.4762325880965808e+00 -3.4685795548802139e+00 -3.4493589397286639e+00 -3.4625725886258949e+00 -3.5461117996650038e+00 -3.5367482115429070e+00 -3.5293098663662379e+00 -8.5299618600465461e+00
 -8.5521410073558268e+00 -8.5309494293374115e+00 -8.5531012159299582e+00 -8.6228247914168357e+00 -8.6237405598892920e+00 -3.4467953348911280e+00 -3.4595955218969516e+00 -3.4459593057836249e+00 -3.4586387519877579e+00 -3.5257280711912418e+00
 -3.5245680688209307e+00 -8.7513391969584191e+00 -8.7524074504157614e+00 -8.7501097829916628e+00 -8.9435103326489962e+00 -8.9424488418346808e+00 -8.9413033822741799e+00 -3.6999928616808888e+00 -3.6890888520769103e+00 -3.6806220112356405e+00
 -3.9982562094198073e+00 -3.9861659189391787e+00 -3.9775504836556927e+00 -8.7498296335658274e+00 -8.7507435556365092e+00 -8.9411154499321288e+00 -8.9421159390499856e+00 -3.6766396789553957e+00 -3.6753665805411009e+00 -3.9736781322274175e+00
 -3.9725192594139789e+00 -2.1748763681502581e+00 -2.1661523808934020e+00 -2.1829473525216083e+00 -2.1623662749129977e+00 -8.9249649575067935e-01 -8.8066502370241473e-01 -8.9034234547905911e-01 -8.4294360748122654e-01 3.1744402361714880e-01
 3.2233838640310392e-01 3.2092128715061963e-01 3.7401205975980978e-01 4.2321478623600239e-01 4.2324280597239833e-01 4.2323961432071988e-01 4.3838911976348854e-01 -2.1607948672954338e+00 -2.1543135080968780e+00 -8.7612676327049910e-01
 -8.3463216720977140e-01 3.2306998243454255e-01 3.7442471946577849e-01 4.2324447090610479e-01 4.3839416295869316e-01 -2.2350312159532453e+00 -2.2105909574112395e+00 -9.1940634101921948e-01 -8.6581004749558255e-01 3.1647474242433088e-01