DF-ISE text

Info {
  version = 1.0
  type    = dataset
  dimension   = 3
  nb_vertices = 5293
  nb_edges    = 23303
  nb_faces    = 30690
  nb_elements = 12980
  nb_regions  = 3
  datasets    = [ "ElectrostaticPotential" "ContactExternalVoltage" "ContactCurrentFlux" "ContactCharge" "eQuasiFermiPotential" "hQuasiFermiPotential" "QuasiFermiPotential" "LatticeTemperature" ]
  functions   = [ ElectrostaticPotential ContactExternalVoltage ContactCurrentFlux ContactCharge eQuasiFermiPotential hQuasiFermiPotential QuasiFermiPotential LatticeTemperature ]
}

Data {

  Dataset ("ElectrostaticPotential") {
    function  = ElectrostaticPotential
    type      = scalar
    dimension = 1
    location  = vertex
    validity  = [ "substrate" ]
    Values (5293) {
 -1.0037888985310794e+02 -1.0037067153428173e+02 -1.0037888985310794e+02 -1.0037888985310794e+02 -1.0037067208213105e+02 -1.0037067167123476e+02 -1.0039459903196268e+02 -1.0038638156191990e+02 -1.0035550511979631e+02 -1.0035550619150904e+02
 -1.0035550538767355e+02 -1.0037121856191069e+02 -1.0032334541709012e+02 -1.0032335054507875e+02 -1.0032334664426764e+02 -1.0033908070069893e+02 -1.0026975119945405e+02 -1.0027007260948760e+02 -1.0026980721297384e+02 -1.0028869155004497e+02
 -9.9967475712026882e+01 -9.9979319338652104e+01 -9.9969357283622784e+01 -1.0003255635285147e+02 -9.9598712067317038e+01 -9.9616186184023775e+01 -9.9601139094566562e+01 -9.9648931398320158e+01 -9.9227241894255116e+01 -9.9247320517277359e+01
 -9.9229673637923355e+01 -9.9264254704381401e+01 -1.0037888985310794e+02 -1.0037067167124135e+02 -1.0039459903196268e+02 -1.0038638169886424e+02 -1.0035550538770312e+02 -1.0037121882950761e+02 -1.0032334666788397e+02 -1.0033908185816750e+02
 -1.0026981764245573e+02 -1.0028874021353967e+02 -9.9969812048170894e+01 -1.0003618911434791e+02 -9.9601912910482966e+01 -9.9653582750112434e+01 -9.9230650120455294e+01 -9.9268848762387975e+01 -9.6212956195852001e+01 -9.6219759090208640e+01
 -9.6213327606257607e+01 -9.6221095163417345e+01 -9.6213526853598012e+01 -9.6221714750171358e+01 -1.0037888985310794e+02 -1.0037067208214449e+02 -1.0039459903196268e+02 -1.0038638159616585e+02 -1.0035550619158587e+02 -1.0037121862883049e+02
 -1.0032335064188564e+02 -1.0033908101139581e+02 -1.0027011570580402e+02 -1.0028872261816585e+02 -9.9981229483152617e+01 -1.0003531633307398e+02 -9.9619725999533671e+01 -9.9653556958010853e+01 -9.9252180001909977e+01 -9.9270178264641814e+01
 -1.0039459903196268e+02 -1.0038638173311094e+02 -1.0037121889642981e+02 -1.0033908217101336e+02 -1.0028877318070842e+02 -1.0003914340223166e+02 -9.9658537848715895e+01 -9.9275184656957265e+01 -9.6223950336340707e+01 -9.6225435300715503e+01
 -9.6226135367486251e+01 -1.0037888985310794e+02 -1.0037067167123361e+02 -1.0039459903196268e+02 -1.0038638154699370e+02 -1.0035550538766844e+02 -1.0037121853274168e+02 -1.0032334663909863e+02 -1.0033908057345022e+02 -1.0026980491857159e+02
 -1.0028868538218110e+02 -9.9969257016556114e+01 -1.0003208716875145e+02 -9.9600956903131944e+01 -9.9648241384575357e+01 -9.9229428584544550e+01 -9.9263466722206658e+01 -1.0037888985310794e+02 -1.0037067151935440e+02 -1.0037717774777705e+02
 -1.0036895993210733e+02 -1.0035550509059438e+02 -1.0035379358918725e+02 -1.0032334527940286e+02 -1.0032163450429077e+02 -1.0026974339849178e+02 -1.0026787115044777e+02 -9.9967202538961033e+01 -9.9974414349094886e+01 -9.9598296597042221e+01
 -9.9612730608872042e+01 -9.9226749970215081e+01 -9.9245042041647480e+01 -9.6213194541724064e+01 -9.6220850200919102e+01 -9.6212751595200672e+01 -9.6219341109507099e+01 -1.0039459903196268e+02 -1.0038638158123939e+02 -1.0037121859966088e+02
 -1.0033908088371885e+02 -1.0028871607248111e+02 -1.0003480913467509e+02 -9.9652798195393771e+01 -9.9269298702807347e+01 -1.0037717774777705e+02 -1.0036895992407254e+02 -1.0035379357353253e+02 -1.0032163454510847e+02 -1.0026791475444726e+02
 -9.9976210436939240e+01 -9.9616101190395895e+01 -9.9249706995241638e+01 -9.6225150818832873e+01 -9.6223469597459754e+01 -9.3167240252916969e+01 -9.3169267553200612e+01 -9.3167281940112190e+01 -9.3169375815933321e+01 -9.3167300858464813e+01
 -9.3169431389502265e+01 -9.0102283030552172e+01 -9.0102940761535180e+01 -9.0102286416504981e+01 -9.0102948767394821e+01 -9.0102285536559677e+01 -9.0102950450225450e+01 -9.3171410825016522e+01 -9.3171534968425632e+01 -9.3171599296953517e+01
 -9.0103927441783128e+01 -9.0103936858698916e+01 -9.0103938990951164e+01 -9.3167238547792437e+01 -9.3169313718462305e+01 -9.3167177448523987e+01 -9.3169175301639527e+01 -9.0102274186834308e+01 -9.0102933508584172e+01 -9.0102265621920509e+01
 -9.0102918905856185e+01 -9.3171462419774699e+01 -9.3171303228578751e+01 -9.0103919210379757e+01 -9.0103902165094169e+01 -1.0037888985310794e+02 -1.0037067208214586e+02 -1.0039459903196268e+02 -1.0038638159616730e+02 -1.0035550619159822e+02
 -1.0037121862883362e+02 -1.0032335066180856e+02 -1.0033908101621357e+02 -1.0027012459773943e+02 -1.0028872690581682e+02 -9.9981624662077792e+01 -1.0003573765216137e+02 -9.9620485680582831e+01 -9.9654365645815432e+01 -9.9253264350228633e+01
 -9.9271326710803464e+01 -1.0039459903196268e+02 -1.0038638173311243e+02 -1.0037121889643299e+02 -1.0033908217596122e+02 -1.0028877758547424e+02 -1.0003957748343203e+02 -9.9659370459676026e+01 -9.9276365721912242e+01 -9.6225718540809993e+01
 -9.6227219224688596e+01 -9.6227928055937696e+01 -1.0037888985310794e+02 -1.0037067208214602e+02 -1.0039459903196268e+02 -1.0038638159616745e+02 -1.0035550619160031e+02 -1.0037121862883400e+02 -1.0032335066536413e+02 -1.0033908101702841e+02
 -1.0027012618475412e+02 -1.0028872763183131e+02 -9.9981695231073033e+01 -1.0003580902812273e+02 -9.9620622603791972e+01 -9.9654504859598418e+01 -9.9253462525205563e+01 -9.9271528339507199e+01 -1.0039459903196268e+02 -1.0038638173311257e+02
 -1.0037121889643338e+02 -1.0033908217678179e+02 -1.0028877831680532e+02 -1.0003964959408229e+02 -9.9659511109313698e+01 -9.9276569366133117e+01 -9.6226149192989695e+01 -9.6227651148777042e+01 -9.6228360542519468e+01 -1.0039459903196268e+02
 -1.0038638158124084e+02 -1.0037121859966398e+02 -1.0033908088848756e+02 -1.0028872031620060e+02 -1.0003522596863823e+02 -9.9653598310311779e+01 -9.9270435149184493e+01 -1.0037717774777705e+02 -1.0036895992407383e+02 -1.0035379357354742e+02
 -1.0032163456821436e+02 -1.0026792431975315e+02 -9.9976598076303773e+01 -9.9616846289621705e+01 -9.9250771178867964e+01 -9.6226925471713187e+01 -9.6225224114812363e+01 -1.0039459903196268e+02 -1.0038638158124098e+02 -1.0037121859966436e+02
 -1.0033908088929719e+02 -1.0028872103754276e+02 -1.0003529685580304e+02 -9.9653736576045162e+01 -9.9270635429354513e+01 -1.0037717774777705e+02 -1.0036895992407399e+02 -1.0035379357355001e+02 -1.0032163457237925e+02 -1.0026792604382402e+02
 -9.9976667980390445e+01 -9.9616981810450611e+01 -9.9250967319733931e+01 -9.6227355830925049e+01 -9.6225652515919705e+01 -9.3172651640234434e+01 -9.3172777976873789e+01 -9.3172843082106041e+01 -9.0104621678342738e+01 -9.0104631287053039e+01
 -9.0104633284814469e+01 -9.3172991642436756e+01 -9.3173118171967559e+01 -9.3173183229032801e+01 -9.0104820782658365e+01 -9.0104830397572641e+01 -9.0104832327146852e+01 -9.3172702007614504e+01 -9.3172539141071809e+01 -9.0104612639921285e+01
 -9.0104594982995224e+01 -9.3173041487385419e+01 -9.3172878126084072e+01 -9.0104811506991510e+01 -9.0104793742391053e+01 -8.7021130068524613e+01 -8.7021367783679352e+01 -8.7021130064740973e+01 -8.7021368080716215e+01 -8.7021129076860134e+01
 -8.7021367192337934e+01 -8.3924648507633947e+01 -8.3924736752692212e+01 -8.3924648418694076e+01 -8.3924736673039064e+01 -8.3924648126616844e+01 -8.3924736368996335e+01 -8.7021807976872651e+01 -8.7021808360745936e+01 -8.7021807393679396e+01
 -8.3924923623256873e+01 -8.3924923539681373e+01 -8.3924923205799502e+01 -8.7021126854291850e+01 -8.7021364374306515e+01 -8.7021125519848511e+01 -8.7021362524688143e+01 -8.3924647731641400e+01 -8.3924735919839293e+01 -8.3924647535548999e+01
 -8.3924735686716829e+01 -8.7021804143406172e+01 -8.7021801992411284e+01 -8.3924922700228166e+01 -8.3924922435162031e+01 -7.7686598421688146e+01 -7.7686621097586837e+01 -7.7686598410101467e+01 -7.7686621085713696e+01 -7.7686598379695837e+01
 -7.7686621053857664e+01 -7.7686674615992715e+01 -7.7686674603235602e+01 -7.7686674568681994e+01 -7.7686598345937668e+01 -7.7686621017650324e+01 -7.7686598330919651e+01 -7.7686621001298818e+01 -7.7686674529013885e+01 -7.7686674510993086e+01
 -8.7022156788988653e+01 -8.7022157169046181e+01 -8.7022156120257307e+01 -8.3925084719673634e+01 -8.3925084629739402e+01 -8.3925084274297632e+01 -8.7022256541821008e+01 -8.7022256915442824e+01 -8.7022255839326561e+01 -8.3925130582333679e+01
 -8.3925130489969092e+01 -8.3925130127502612e+01 -8.7022152694148687e+01 -8.7022150439769106e+01 -8.3925083738796090e+01 -8.3925083458731578e+01 -8.7022252370110593e+01 -8.7022250092929980e+01 -8.3925129583389079e+01 -8.3925129299274005e+01
 -7.7686728812477966e+01 -7.7686728798983893e+01 -7.7686728762448340e+01 -7.7686756726012021e+01 -7.7686756712249633e+01 -7.7686756675023688e+01 -7.7686728720518772e+01 -7.7686728701476724e+01 -7.7686756632344327e+01 -7.7686756612973966e+01
 -7.1388954401910922e+01 -7.1388969555105149e+01 -7.1388954400670926e+01 -7.1388969553822662e+01 -7.1388954397574807e+01 -7.1388969550613950e+01 -7.1389010407347541e+01 -7.1389010405983953e+01 -7.1389010402565077e+01 -7.1388954394314496e+01
 -7.1388969547221421e+01 -7.1388954392898896e+01 -7.1388969545747273e+01 -7.1389010398941821e+01 -7.1389010397366263e+01 -6.5031776230010905e+01 -6.5031802291361245e+01 -6.5031776229818320e+01 -6.5031802291161782e+01 -6.5031776229320059e+01
 -6.5031802290652763e+01 -6.5031876028020122e+01 -6.5031876027813368e+01 -6.5031876027287396e+01 -6.5031776228751326e+01 -6.5031802290076541e+01 -6.5031776228475138e+01 -6.5031802289800083e+01 -6.5031876026694533e+01 -6.5031876026411581e+01
 -7.1389065571641794e+01 -7.1389065570211457e+01 -7.1389065566625334e+01 -7.1389121816208529e+01 -7.1389121814746190e+01 -7.1389121811081267e+01 -7.1389065562826175e+01 -7.1389065561175244e+01 -7.1389121807200993e+01 -7.1389121805515856e+01
 -6.5031985089410654e+01 -6.5031985089196795e+01 -6.5031985088653755e+01 -6.5032111780465655e+01 -6.5032111780241223e+01 -6.5032111779672576e+01 -6.5031985088043868e+01 -6.5031985087753981e+01 -6.5032111779036768e+01 -6.5032111778736166e+01
 -5.8614976538982127e+01 -5.8615031298423688e+01 -5.8614976538927387e+01 -5.8615031298365402e+01 -5.8614976538761404e+01 -5.8615031298195845e+01 -5.8615187322043745e+01 -5.8615187321983939e+01 -5.8615187321811646e+01 -5.8614976538521191e+01
 -5.8615031297955440e+01 -5.8614976538375778e+01 -5.8615031297812436e+01 -5.8615187321569373e+01 -5.8615187321426134e+01 -5.2138325672003994e+01 -5.2138442148619667e+01 -5.2138325672415405e+01 -5.2138442149028208e+01 -5.2138325673372080e+01
 -5.2138442149981913e+01 -5.2138774654383852e+01 -5.2138774654791249e+01 -5.2138774655742999e+01 -5.2138325674247341e+01 -5.2138442150857188e+01 -5.2138325674556881e+01 -5.2138442151168803e+01 -5.2138774656617159e+01 -5.2138774656928831e+01
 -5.8615421061061092e+01 -5.8615421060998926e+01 -5.8615421060821213e+01 -5.8615697146782686e+01 -5.8615697146711554e+01 -5.8615697146512204e+01 -5.8615421060573837e+01 -5.8615421060428723e+01 -5.8615697146243043e+01 -5.8615697146088998e+01
 -5.2139274545911796e+01 -5.2139274546316472e+01 -5.2139274547261962e+01 -5.2139867755462348e+01 -5.2139867755855988e+01 -5.2139867756774919e+01 -5.2139274548130224e+01 -5.2139274548439708e+01 -5.2139867757616514e+01 -5.2139867757915113e+01
 -1.0037888985310794e+02 -1.0037067208214583e+02 -1.0039459903196268e+02 -1.0038638159616728e+02 -1.0035550619159763e+02 -1.0037121862883352e+02 -1.0032335066076028e+02 -1.0033908101597815e+02 -1.0027012412983107e+02 -1.0028872669604264e+02
 -9.9981603850658132e+01 -1.0003571702618756e+02 -9.9620445001134726e+01 -9.9654325083985157e+01 -9.9253204740479546e+01 -9.9271267168449199e+01 -1.0039459903196268e+02 -1.0038638173311240e+02 -1.0037121889643291e+02 -1.0033908217572677e+02
 -1.0028877737649977e+02 -1.0003955687506287e+02 -9.9659329918647558e+01 -9.9276306199985498e+01 -9.6225555244805847e+01 -9.6227055935036617e+01 -9.6227764768710728e+01 -1.0037888985310794e+02 -1.0037067208214422e+02 -1.0039459903196268e+02
 -1.0038638159616562e+02 -1.0035550619158347e+02 -1.0037121862882998e+02 -1.0032335063816076e+02 -1.0033908101055987e+02 -1.0027011404428634e+02 -1.0028872187390199e+02 -9.9981155669016289e+01 -1.0003524319359110e+02 -9.9619583685190904e+01
 -9.9653415080371175e+01 -9.9251975343506885e+01 -9.9269973862295444e+01 -1.0039459903196268e+02 -1.0038638173311071e+02 -1.0037121889642930e+02 -1.0033908217018087e+02 -1.0028877243931039e+02 -1.0003907032820494e+02 -9.9658396049845848e+01
 -9.9274980332972490e+01 -9.6223528815144462e+01 -9.6225013803581874e+01 -9.6225713880118946e+01 -1.0039459903196268e+02 -1.0038638158124083e+02 -1.0037121859966388e+02 -1.0033908088825197e+02 -1.0028872010628749e+02 -1.0003520533774156e+02
 -9.9653557741118689e+01 -9.9270375598012762e+01 -1.0037717774777705e+02 -1.0036895992407382e+02 -1.0035379357354665e+02 -1.0032163456697269e+02 -1.0026792380573072e+02 -9.9976577229500364e+01 -9.9616805582778738e+01 -9.9250711547937854e+01
 -9.6226762177893420e+01 -9.6225060812281455e+01 -1.0039459903196268e+02 -1.0038638158123916e+02 -1.0037121859966038e+02 -1.0033908088288229e+02 -1.0028871532771912e+02 -1.0003473597712207e+02 -9.9652656290657887e+01 -9.9269094268070774e+01
 -1.0037717774777705e+02 -1.0036895992407227e+02 -1.0035379357352952e+02 -1.0032163454069565e+02 -1.0026791292890444e+02 -9.9976136493642827e+01 -9.9615958774634876e+01 -9.9249502257915722e+01 -9.6224729308136034e+01 -9.6223048054675729e+01
 -9.3172479536423054e+01 -9.3172605873540888e+01 -9.3172670978644589e+01 -9.0104483158716562e+01 -9.0104492767392330e+01 -9.0104494764932781e+01 -9.3171024221647471e+01 -9.3171148366909208e+01 -9.3171212695319866e+01 -9.0103640430860565e+01
 -9.0103649847686526e+01 -9.0103651979242372e+01 -9.3172529902767508e+01 -9.3172367035072384e+01 -9.0104474119655933e+01 -9.0104456462509233e+01 -9.3171075813621670e+01 -9.3170916618467515e+01 -9.0103632197402604e+01 -9.0103615151362646e+01
 -1.0037888985310794e+02 -1.0037067207466593e+02 -1.0039459903196268e+02 -1.0038638155818681e+02 -1.0035550617689917e+02 -1.0037121855461523e+02 -1.0032335046465144e+02 -1.0033908066603574e+02 -1.0027006355085186e+02 -1.0028868748817742e+02
 -9.9978952392921428e+01 -1.0003219276626083e+02 -9.9615544748067947e+01 -9.9648291976016438e+01 -9.9246467624896610e+01 -9.9263402859248913e+01 -1.0039459903196268e+02 -1.0038638169513126e+02 -1.0037121882221241e+02 -1.0033908182352594e+02
 -1.0028873616640158e+02 -1.0003582581196875e+02 -9.9652943649646915e+01 -9.9267997215569082e+01 -9.6218827371035928e+01 -9.6220163525968204e+01 -9.6220783146501034e+01 -1.0037717774777708e+02 -1.0036895928491626e+02 -1.0037717774777708e+02
 -1.0036895943261761e+02 -1.0035379232288578e+02 -1.0035379261183606e+02 -1.0032162836234643e+02 -1.0032162969930991e+02 -1.0026748411720767e+02 -1.0026754578816328e+02 -9.9961446594568770e+01 -9.9963331770551235e+01 -9.9593521238642055e+01
 -9.9595950471662960e+01 -9.9222865147806729e+01 -9.9225298076196182e+01 -1.0037717774777708e+02 -1.0036895943262492e+02 -1.0035379261187131e+02 -1.0032162972736135e+02 -1.0026755728171983e+02 -9.9963787414840866e+01 -9.9596724960261085e+01
 -9.9226275035643511e+01 -9.6211168872604460e+01 -9.6211540378902285e+01 -9.6211739671651927e+01 -1.0039459903196268e+02 -1.0038638154326060e+02 -1.0037121852544617e+02 -1.0033908053878353e+02 -1.0028868131792153e+02 -1.0003172351258998e+02
 -9.9647601865941382e+01 -9.9262614769511885e+01 -1.0037717774777705e+02 -1.0036895992405647e+02 -1.0035379357342681e+02 -1.0032163441541475e+02 -1.0026786120069553e+02 -9.9974046779195334e+01 -9.9612088739402850e+01 -9.9244188859312430e+01
 -9.6219918528820685e+01 -9.6218409332908578e+01 -1.0037717774777708e+02 -1.0036895943261632e+02 -1.0035379261182986e+02 -1.0032162969316792e+02 -1.0026754325932620e+02 -9.9963231288357207e+01 -9.9595768088726231e+01 -9.9225052855933441e+01
 -1.0037717774777708e+02 -1.0036895926881735e+02 -1.0035379229138603e+02 -1.0032162821195605e+02 -1.0026747552313890e+02 -9.9961172829281210e+01 -9.9593105326733976e+01 -9.9222372901717947e+01 -9.6211407266193930e+01 -9.6210964197485197e+01
 -9.3168601761153994e+01 -9.3168710029590656e+01 -9.3168765603648211e+01 -9.0102505742698256e+01 -9.0102513748331319e+01 -9.0102515429298563e+01 -9.3166330382042460e+01 -9.3166372075614873e+01 -9.3166390993309903e+01 -9.0101762407761669e+01
 -9.0101765792926969e+01 -9.0101764909112774e+01 -9.3168647921019428e+01 -9.3168509493248848e+01 -9.0102498484168621e+01 -9.0102483879264838e+01 -9.3166328665675579e+01 -9.3166267551753194e+01 -9.0101753552615591e+01 -9.0101744983400323e+01
 -8.7022061825565515e+01 -8.7022062205566499e+01 -8.7022061156623138e+01 -8.3925031286960774e+01 -8.3925031196977258e+01 -8.3925030841411740e+01 -8.7021620076041373e+01 -8.7021620459711897e+01 -8.7021619492078955e+01 -8.3924820642448736e+01
 -8.3924820558681830e+01 -8.3924820224302309e+01 -8.7022057730334907e+01 -8.7022055475871781e+01 -8.3925030305778122e+01 -8.3925030025655417e+01 -8.7021616241120256e+01 -8.7021614089788969e+01 -8.3924819718165338e+01 -8.3924819452829340e+01
 -7.7686746788721493e+01 -7.7686746775181561e+01 -7.7686746738531752e+01 -7.7686707155008776e+01 -7.7686707142067362e+01 -7.7686707107036156e+01 -7.7686746696481066e+01 -7.7686746677385813e+01 -7.7686707066825107e+01 -7.7686707048543553e+01
 -8.7021101137428047e+01 -8.7021101433860466e+01 -8.7021100543730270e+01 -8.3924595665681792e+01 -8.3924595585427042e+01 -8.3924595279730283e+01 -8.7020827496518578e+01 -8.7020827491472872e+01 -8.7020826499791099e+01 -8.3924492149231696e+01
 -8.3924492059023081e+01 -8.3924491763219834e+01 -8.7021097723419842e+01 -8.7021095872567273e+01 -8.3924594828494733e+01 -8.3924594594247665e+01 -8.7020824271837910e+01 -8.7020822934122748e+01 -8.3924491362998012e+01 -8.3924491163652561e+01
 -7.7686662643408098e+01 -7.7686662630941242e+01 -7.7686662597450081e+01 -7.7686642905073001e+01 -7.7686642892214380e+01 -7.7686642858043228e+01 -7.7686662559169321e+01 -7.7686662541673954e+01 -7.7686642818878482e+01 -7.7686642800396143e+01
 -7.1389168612459144e+01 -7.1389168610983589e+01 -7.1389168607284788e+01 -7.1389200697047713e+01 -7.1389200695501231e+01 -7.1389200691607826e+01 -7.1389168603366215e+01 -7.1389168601662817e+01 -7.1389200687442937e+01 -7.1389200685605005e+01
 -6.5032236364244412e+01 -6.5032236363985561e+01 -6.5032236363330554e+01 -6.5032340308835444e+01 -6.5032340308446479e+01 -6.5032340307447257e+01 -6.5032236362601978e+01 -6.5032236362259994e+01 -6.5032340306312292e+01 -6.5032340305764706e+01
 -7.1389218035298740e+01 -7.1389218033422694e+01 -7.1389218028570951e+01 -7.1389223284526693e+01 -7.1389223282001424e+01 -7.1389223275055826e+01 -7.1389218023068025e+01 -7.1389218020400932e+01 -7.1389223266123608e+01 -7.1389223260912559e+01
 -6.5032408882514630e+01 -6.5032408881721054e+01 -6.5032408879559711e+01 -6.5032432788099371e+01 -6.5032432786608581e+01 -6.5032432782176997e+01 -6.5032408876834225e+01 -6.5032408875311447e+01 -6.5032432775655039e+01 -6.5032432771203773e+01
 -5.8615973647008900e+01 -5.8615973646901374e+01 -5.8615973646610904e+01 -5.8616208383334936e+01 -5.8616208383092385e+01 -5.8616208382445400e+01 -5.8615973646244171e+01 -5.8615973646046754e+01 -5.8616208381658090e+01 -5.8616208381247013e+01
 -5.2140464887086587e+01 -5.2140464887439180e+01 -5.2140464888255842e+01 -5.2140974250218690e+01 -5.2140974250429331e+01 -5.2140974250872539e+01 -5.2140464888988767e+01 -5.2140464889239468e+01 -5.2140974251166618e+01 -5.2140974251194137e+01
 -5.8616365398227799e+01 -5.8616365397573652e+01 -5.8616365395740296e+01 -5.8616420564872463e+01 -5.8616420563506935e+01 -5.8616420559325007e+01 -5.8616365393309906e+01 -5.8616365391863184e+01 -5.8616420552836793e+01 -5.8616420548082282e+01
 -5.2141316230703147e+01 -5.2141316230494432e+01 -5.2141316229726378e+01 -5.2141436631284449e+01 -5.2141436630351869e+01 -5.2141436627161674e+01 -5.2141316228325195e+01 -5.2141316227253462e+01 -5.2141436621431623e+01 -5.2141436616614236e+01
 -4.5601329809628282e+01 -4.5601575699993710e+01 -4.5601329815201964e+01 -4.5601575705565665e+01 -4.5601329828619285e+01 -4.5601575718981856e+01 -4.5602279261494509e+01 -4.5602279267066081e+01 -4.5602279280482072e+01 -4.5601329841948335e+01
 -4.5601575732312376e+01 -4.5601329847408508e+01 -4.5601575737774873e+01 -4.5602279293813204e+01 -4.5602279299276439e+01 -3.9002953410038771e+01 -3.9003465152744660e+01 -3.9002953473839050e+01 -3.9003465216557650e+01 -3.9002953627847127e+01
 -3.9003465370598633e+01 -3.9004935440047575e+01 -3.9004935503890188e+01 -3.9004935658003319e+01 -3.9002953781790183e+01 -3.9003465524576846e+01 -3.9002953845494488e+01 -3.9003465588297146e+01 -3.9004935812054470e+01 -3.9004935875805437e+01
 -4.5603341576624061e+01 -4.5603341582188094e+01 -4.5603341595586180e+01 -4.5604609494232157e+01 -4.5604609499763406e+01 -4.5604609513082522e+01 -4.5603341608899811e+01 -4.5603341614356083e+01 -4.5604609526317098e+01 -4.5604609531740870e+01
 -3.9007172783669503e+01 -3.9007172847495362e+01 -3.9007173001568432e+01 -3.9009871383766168e+01 -3.9009871447372269e+01 -3.9009871600915012e+01 -3.9007173155579977e+01 -3.9007173219314886e+01 -3.9009871754396244e+01 -3.9009871817911808e+01
 -3.2341067725105745e+01 -3.2342105083159964e+01 -3.2341068445463222e+01 -3.2342105803739045e+01 -3.2341070185286540e+01 -3.2342107544098795e+01 -3.2345108048473683e+01 -3.2345108769642408e+01 -3.2345110511426469e+01 -3.2341071926107233e+01
 -3.2342109285457724e+01 -3.2341072647424646e+01 -3.2342110006999199e+01 -3.2345112254210754e+01 -3.2345112976343138e+01 -2.5611446756452416e+01 -2.5613446158320940e+01 -2.5611454871684828e+01 -2.5613454276396361e+01 -2.5611474489551860e+01
 -2.5613473901127190e+01 -2.5619313784754929e+01 -2.5619321911583814e+01 -2.5619341557455670e+01 -2.5611494144790097e+01 -2.5613493563223876e+01 -2.5611502297371306e+01 -2.5613501718642986e+01 -2.5619361240699366e+01 -2.5619369404877990e+01
 -3.2349743620571431e+01 -3.2349744342177402e+01 -3.2349746085018694e+01 -3.2355445688295589e+01 -3.2355446408462633e+01 -3.2355448147831616e+01 -3.2349747828862405e+01 -3.2349748551434487e+01 -3.2355449888204859e+01 -3.2355450609340394e+01
 -2.5628612016085526e+01 -2.5628620154772964e+01 -2.5628639829321074e+01 -2.5640473711501315e+01 -2.5640481847786173e+01 -2.5640501516609554e+01 -2.5628659541306742e+01 -2.5628667717409922e+01 -2.5640521222978418e+01 -2.5640529396787457e+01
 -1.8806157452048691e+01 -1.8809641123610461e+01 -1.8806248584757459e+01 -1.8809732287570423e+01 -1.8806469470892694e+01 -1.8809953249192386e+01 -1.8820123609850427e+01 -1.8820214883865329e+01 -1.8820436111424939e+01 -1.8806691630025423e+01
 -1.8810175483471824e+01 -1.8806784037232941e+01 -1.8810267921583844e+01 -1.8820658611631565e+01 -1.8820751159780230e+01 -1.5370473055880908e+01 -1.5371618949182688e+01 -1.5370915642119728e+01 -1.5374633988657322e+01 -1.5375076698230849e+01
 -1.5372058489878413e+01 -1.5371995558409427e+01 -1.5376156916659804e+01 -1.5373130844615304e+01 -1.1907227440267953e+01 -1.1909037214111844e+01 -1.1908344210436836e+01 -1.1910153922068622e+01 -1.1911724918013512e+01 -1.1913535066191391e+01
 -1.1913517961284969e+01 -1.1914634574248934e+01 -1.1918016839214696e+01 -1.5380025747130199e+01 -1.5387442700211391e+01 -1.5387885907717964e+01 -1.5380465562630308e+01 -1.5388967330212331e+01 -1.5381538582795129e+01 -1.1917548197873449e+01
 -1.1919358777515935e+01 -1.1926028307401747e+01 -1.1927840172694856e+01 -1.1923841592338441e+01 -1.1932326115171179e+01 -1.5373092477728234e+01 -1.5377254131515777e+01 -1.5374219879909926e+01 -1.5373552106461982e+01 -1.5377713876758310e+01
 -1.5374676139440389e+01 -1.1918169888463730e+01 -1.1919286384270766e+01 -1.1922669715791027e+01 -1.1920151561729462e+01 -1.1921267971991810e+01 -1.1924651682314114e+01 -1.5390065744052510e+01 -1.5382628273227599e+01 -1.5390525981933228e+01
 -1.5383084796978858e+01 -1.1928495422779024e+01 -1.1936983074908840e+01 -1.1930477730118914e+01 -1.1938966668322458e+01 -1.8837552684388275e+01 -1.8837644161539828e+01 -1.8837865881157530e+01 -1.8861339583549317e+01 -1.8861431219390322e+01
 -1.8861653325588239e+01 -1.8838088875710461e+01 -1.8838181629280921e+01 -1.8861876711732702e+01 -1.8861969628999276e+01 -1.5397443263297069e+01 -1.5409697488625405e+01 -1.5410141882366167e+01 -1.5397883881767106e+01 -1.5411226189344573e+01
 -1.5398958849033557e+01 -1.1937506754054370e+01 -1.1939320432817746e+01 -1.1952349383835989e+01 -1.1954166257948904e+01 -1.1943810808865088e+01 -1.1958664487395410e+01 -1.5424722807961610e+01 -1.5442105689156488e+01 -1.5442551786933810e+01
 -1.5425164960276824e+01 -1.5443640262377350e+01 -1.5426243666120497e+01 -1.1971029220448079e+01 -1.1972850163241166e+01 -1.1993989992149643e+01 -1.1995816243109921e+01 -1.1977358424717304e+01 -1.2000337660499961e+01 -1.5412327516691926e+01
 -1.5400050495780258e+01 -1.5412788969761465e+01 -1.5400507831603198e+01 -1.1948472274524736e+01 -1.1963334011221084e+01 -1.1950457753115964e+01 -1.1965322889478736e+01 -1.5444745837978239e+01 -1.5427339103052319e+01 -1.5445209074784524e+01
 -1.5427798024266345e+01 -1.1982038291916073e+01 -1.2005031192418157e+01 -1.1984031549594661e+01 -1.2007030266282454e+01 -8.4057160810694356e+00 -8.4066826373565533e+00 -8.4126878377297576e+00 -8.4136544558215842e+00 -8.4097109813241868e+00
 -8.4166832745463243e+00 -8.4305693493794021e+00 -8.4315376733059502e+00 -8.4345690038958345e+00 -4.8255891017996042e+00 -4.8254736252706110e+00 -4.8316389136377147e+00 -4.8257457418078342e+00 -4.8494471237058594e+00 -4.8315288587010716e+00
 -4.8497019955877416e+00 -4.8317931365491287e+00 -4.8495507138386786e+00 -4.8263411531911657e+00 -4.8323842508968475e+00 -4.8272058780036842e+00 -4.8511523488748223e+00 -4.8332496012393564e+00 -4.8502866940588110e+00 -4.8788734816701576e+00
 -4.9176196643408767e+00 -4.8787782556870818e+00 -4.9179025146716251e+00 -4.8790397294947665e+00 -4.9177033069535110e+00 -4.8796172204555432e+00 -4.9193702170012168e+00 -4.8804950918950523e+00 -4.9184693139574165e+00 -8.4151053011477686e+00
 -8.4220789246810028e+00 -8.4232722522293990e+00 -8.4302492777172642e+00 -8.4399680693764338e+00 -8.4481467565819717e+00 -4.8286890260343354e+00 -4.8347306475289971e+00 -4.8305705360543314e+00 -4.8545158365793135e+00 -4.8366141871706470e+00
 -4.8526297794545350e+00 -4.8331802920764817e+00 -4.8392230331316775e+00 -4.8362938697684870e+00 -4.8602465303891540e+00 -4.8423400226434623e+00 -4.8571236734710013e+00 -4.8819623695045902e+00 -4.9227354762171576e+00 -4.8838601419756813e+00
 -4.9208178117263461e+00 -4.8864603503777992e+00 -4.9284848776101535e+00 -4.8896000871812744e+00 -4.9253186160332723e+00 -8.4501429585336432e+00 -8.4511130449827085e+00 -8.4541460485850592e+00 -8.4588197331994301e+00 -8.4597899181186058e+00
 -8.4628224823411937e+00 -4.9620876102181208e+00 -5.0047050956609729e+00 -4.9620261707154709e+00 -5.0050281105005103e+00 -4.9623380265067558e+00 -5.0047293485450348e+00 -4.9628797995402278e+00 -5.0064996573110507e+00 -4.9638167671288027e+00
 -5.0055259134697128e+00 -5.0361905125637874e+00 -5.0480405159995883e+00 -5.0362018887152438e+00 -5.0483585573243435e+00 -5.0365238826461312e+00 -5.0480110956132620e+00 -5.0369778334951922e+00 -5.0498030651875627e+00 -5.0379792873963840e+00
 -5.0487896446937741e+00 -8.4595474941711988e+00 -8.4677342912610261e+00 -8.4682241724248897e+00 -8.4764141278380976e+00 -4.9652278424940102e+00 -5.0098500692061156e+00 -4.9671787256696955e+00 -5.0078608195291396e+00 -4.9697296808369895e+00
 -5.0156150410226052e+00 -4.9729380256529696e+00 -5.0123582859940452e+00 -5.0392958084673722e+00 -5.0531339761768992e+00 -5.0413171696496466e+00 -5.0510978419759596e+00 -5.0437882264200145e+00 -5.0589027217391926e+00 -5.0470858404877212e+00
 -5.0555868206466510e+00 -2.9552407259579008e+00 -2.9638884229143145e+00 -2.9557338489118172e+00 -2.9644798748000749e+00 -2.9545058998686917e+00 -2.9630746144645626e+00 -2.9925364544637083e+00 -2.9918760998947254e+00 -2.9909819870471073e+00
 -1.0162574945029303e+00 -1.0129642323869650e+00 -1.0212069362836953e+00 -1.0159540836950161e+00 -1.0097535761098078e+00 -1.0118726985186730e+00 -1.0458120524196217e+00 -1.0397334348225062e+00 -1.0349251232497496e+00 -2.9540834263803628e+00
 -2.9626146578179751e+00 -2.9541480792155381e+00 -2.9626644826095960e+00 -2.9904767895383895e+00 -2.9905062302929508e+00 -1.0079139881157095e+00 -1.0097689831501144e+00 -1.0071231792373190e+00 -1.0089057642090302e+00 -1.0325357113904554e+00
 -1.0315795521258115e+00 -3.0427862092601168e+00 -3.0434388378105317e+00 -3.0419063194218317e+00 -3.1211804962251621e+00 -3.1206275664956613e+00 -3.1198729979964179e+00 -1.1022499935063885e+00 -1.0961696359346074e+00 -1.0913609373708744e+00
 -1.2139881714314935e+00 -1.2088221102076691e+00 -1.2048115287515522e+00 -3.0414087377123349e+00 -3.0414390922425194e+00 -3.1194414575748142e+00 -3.1194920953647145e+00 -1.0889720686160800e+00 -1.0880078342463793e+00 -1.2027359394501147e+00
 -1.2018420506952299e+00 -5.2878228267756600e-01 -5.2307026755246544e-01 -5.2913407224988607e-01 -5.1475078600849355e-01 -4.5380093607368305e-02 -3.8187572631000741e-02 -4.1442774367599633e-02 -8.3580919342998768e-03 3.6701315961843789e-01
 3.6742555179833974e-01 3.6734312208411718e-01 3.8635575441280701e-01 4.2332622360691829e-01 4.2334399071628809e-01 4.2334380592284931e-01 4.3840344143599547e-01 -5.1952377581076425e-01 -5.0925875356875017e-01 -3.5348342865739700e-02
 -2.6950104154163067e-03 3.6749941069450281e-01 3.8647417253749439e-01 4.2334417107779876e-01 4.3840811508518629e-01 -5.4629780957700025e-01 -5.2999918761343146e-01 -4.9827503728929128e-02 -1.3893789270656678e-02 3.6713347616879360e-01