DF-ISE text

Info {
  version = 1.0
  type    = dataset
  dimension   = 3
  nb_vertices = 5293
  nb_edges    = 23303
  nb_faces    = 30690
  nb_elements = 12980
  nb_regions  = 3
  datasets    = [ "ElectrostaticPotential" "eDensity" "hDensity" "LatticeTemperature" "ElectricField-Vector" ]
  functions   = [ ElectrostaticPotential eDensity hDensity LatticeTemperature ElectricField ]
}

Data {

  Dataset ("ElectrostaticPotential") {
    function  = ElectrostaticPotential
    type      = scalar
    dimension = 1
    location  = vertex
    validity  = [ "substrate" ]
    Values (5293) {
 -7.0478889853107930e+01 -7.0470671527711289e+01 -7.0478889853107930e+01 -7.0478889853107930e+01 -7.0470672075508574e+01 -7.0470671664656294e+01 -7.0494599031962665e+01 -7.0486381555272814e+01 -7.0455505116446929e+01 -7.0455506188035940e+01
 -7.0455505384303933e+01 -7.0471218555621761e+01 -7.0423351338089503e+01 -7.0423356334926012e+01 -7.0423352542645162e+01 -7.0439082006634209e+01 -7.0372396444935305e+01 -7.0372660477145914e+01 -7.0372442642860946e+01 -7.0389861299300406e+01
 -7.0189883749281833e+01 -7.0200732485700200e+01 -7.0191616351154323e+01 -7.0250361118486921e+01 -6.9941272775794388e+01 -6.9957409506906529e+01 -6.9943521495388168e+01 -6.9987976307696840e+01 -6.9690020290750141e+01 -6.9708613620904728e+01
 -6.9692278167320069e+01 -6.9724402674771099e+01 -7.0478889853107930e+01 -7.0470671664660003e+01 -7.0494599031962665e+01 -7.0486381692211282e+01 -7.0455505384327950e+01 -7.0471218823210066e+01 -7.0423352561464526e+01 -7.0439083152864910e+01
 -7.0372450935940975e+01 -7.0389900286236681e+01 -7.0192020635542519e+01 -7.0253326738721555e+01 -6.9944221494891011e+01 -6.9992067258003260e+01 -6.9693169118813771e+01 -6.9728564237832941e+01 -6.7639929455869861e+01 -6.7646220133485073e+01
 -6.7640274039672761e+01 -6.7647462735973107e+01 -6.7640456953323991e+01 -6.7648030959263508e+01 -7.0478889853107930e+01 -7.0470672075512439e+01 -7.0494599031962665e+01 -7.0486381589509151e+01 -7.0455506188090865e+01 -7.0471218622529179e+01
 -7.0423356410217536e+01 -7.0439082308875427e+01 -7.0372693984121511e+01 -7.0389884926881081e+01 -7.0202388878567916e+01 -7.0252532451531977e+01 -6.9960542857122931e+01 -6.9991956692440596e+01 -6.9712953873028724e+01 -6.9729650036954936e+01
 -7.0494599031962665e+01 -7.0486381726448045e+01 -7.0471218890119260e+01 -7.0439083456152048e+01 -7.0389924828309233e+01 -7.0255597344848937e+01 -6.9996291721727474e+01 -6.9734151458987185e+01 -6.7650027600889985e+01 -6.7651402261502469e+01
 -6.7652040695590287e+01 -7.0478889853107930e+01 -7.0470671664655882e+01 -7.0494599031962665e+01 -7.0486381540347907e+01 -7.0455505384300125e+01 -7.0471218526454436e+01 -7.0423352538452335e+01 -7.0439081880846487e+01 -7.0372440783119785e+01
 -7.0389856361518866e+01 -7.0191525487505771e+01 -7.0249972654924065e+01 -6.9943354008201950e+01 -6.9987359620909743e+01 -6.9692051463372223e+01 -6.9723679105904495e+01 -7.0478889853107930e+01 -7.0470671512785543e+01 -7.0477177747777048e+01
 -7.0468959925489514e+01 -7.0455505087248326e+01 -7.0453793586573966e+01 -7.0423351203558852e+01 -7.0421641331895813e+01 -7.0372390004047332e+01 -7.0370700984908538e+01 -7.0189629363984807e+01 -7.0196076665584513e+01 -6.9940883775729219e+01
 -6.9954134356934858e+01 -6.9689559163569129e+01 -6.9706462131964116e+01 -6.7640149943764754e+01 -6.7647234556370194e+01 -6.7639738065232692e+01 -6.7645828089028626e+01 -7.0494599031962665e+01 -7.0486381574584158e+01 -7.0471218593361456e+01
 -7.0439082182819618e+01 -7.0389879754152560e+01 -7.0252119168526661e+01 -6.9991283547843437e+01 -6.9728846216439806e+01 -7.0477177747777048e+01 -7.0468959917445403e+01 -7.0453793570895044e+01 -7.0421641348415946e+01 -7.0370734521569105e+01
 -7.0197633201673909e+01 -6.9957114533805566e+01 -6.9710624261184208e+01 -6.7651137927780951e+01 -6.7649577674772317e+01 -6.5559647454272138e+01 -6.5561515895440962e+01 -6.5559686059219715e+01 -6.5561616344318494e+01 -6.5559703328610354e+01
 -6.5561667315302003e+01 -6.3460466578857385e+01 -6.3461070408672668e+01 -6.3460469699101985e+01 -6.3461077811199857e+01 -6.3460468829771465e+01 -6.3461079294305605e+01 -6.5563468842510645e+01 -6.5563583531069497e+01 -6.5563642206254414e+01
 -6.3461969542363619e+01 -6.3461978212152751e+01 -6.3461980074584567e+01 -6.5559645535408023e+01 -6.5561558366786841e+01 -6.5559588752004700e+01 -6.5561429606485646e+01 -6.3460458274816027e+01 -6.3461063559811777e+01 -6.3460450312766838e+01
 -6.3461049986186140e+01 -6.5563515912726515e+01 -6.5563368366574153e+01 -6.3461961750282761e+01 -6.3461945953008374e+01 -7.0478889853107930e+01 -7.0470672075512468e+01 -7.0494599031962665e+01 -7.0486381589509264e+01 -7.0455506188099093e+01
 -7.0471218622530415e+01 -7.0423356425256813e+01 -7.0439082312268994e+01 -7.0372700698621614e+01 -7.0389887946841924e+01 -7.0202721608216322e+01 -7.0252844467439942e+01 -6.9961196478838161e+01 -6.9992625783126300e+01 -6.9713896165721991e+01
 -6.9730633535449712e+01 -7.0494599031962665e+01 -7.0486381726448144e+01 -7.0471218890120497e+01 -7.0439083459541678e+01 -7.0389927845625948e+01 -7.0255909844367110e+01 -6.9996972707166705e+01 -6.9735156516851930e+01 -6.7651617128801334e+01
 -6.7653004507825528e+01 -6.7653649825861379e+01 -7.0478889853107930e+01 -7.0470672075512468e+01 -7.0494599031962665e+01 -7.0486381589509264e+01 -7.0455506188100529e+01 -7.0471218622530571e+01 -7.0423356427898682e+01 -7.0439082312832326e+01
 -7.0372701878165628e+01 -7.0389888448898262e+01 -7.0202780086952117e+01 -7.0252896365182778e+01 -6.9961312443084182e+01 -6.9992739002115371e+01 -6.9714065754837051e+01 -6.9730803337541118e+01 -7.0494599031962665e+01 -7.0486381726448144e+01
 -7.0471218890120653e+01 -7.0439083460092931e+01 -7.0389928337054599e+01 -7.0255960769994815e+01 -6.9997085712819413e+01 -6.9735326837378466e+01 -6.7652000904450759e+01 -6.7653389129551172e+01 -6.7654034753420376e+01 -7.0494599031962665e+01
 -7.0486381574584257e+01 -7.0471218593362693e+01 -7.0439082186187491e+01 -7.0389882751046571e+01 -7.0252428699179546e+01 -6.9991946105077716e+01 -6.9729819758079344e+01 -7.0477177747777048e+01 -7.0468959917445389e+01 -7.0453793570905106e+01
 -7.0421641365735766e+01 -7.0370741694432539e+01 -7.0197960468854603e+01 -6.9957756034852096e+01 -6.9711549099389245e+01 -6.7652731827476543e+01 -6.7651154819394833e+01 -7.0494599031962665e+01 -7.0486381574584257e+01 -7.0471218593362849e+01
 -7.0439082186748834e+01 -7.0389883251301256e+01 -7.0252480393005911e+01 -6.9992058669657695e+01 -6.9729988510167288e+01 -7.0477177747777048e+01 -7.0468959917445389e+01 -7.0453793570906910e+01 -7.0421641368811095e+01 -7.0370742967908711e+01
 -7.0198018597063310e+01 -6.9957870957099900e+01 -6.9711717047118043e+01 -6.7653115057288474e+01 -6.7651536586806827e+01 -6.5564591671117014e+01 -6.5564708208471359e+01 -6.5564767463686692e+01 -6.3462598767649162e+01 -6.3462607597430726e+01
 -6.3462609321609307e+01 -6.5564896494933933e+01 -6.5565013174810503e+01 -6.5565072359404198e+01 -6.3462776889807436e+01 -6.3462785721596887e+01 -6.3462787380082105e+01 -6.5564637466635531e+01 -6.5564486713111108e+01 -6.3462590218350897e+01
 -6.3462573875120597e+01 -6.5564941783980501e+01 -6.5564790613471416e+01 -6.3462768119866148e+01 -6.3462751681773319e+01 -6.1345199919209477e+01 -6.1345417235255283e+01 -6.1345199910641526e+01 -6.1345417504736034e+01 -6.1345198982496782e+01
 -6.1345416666404930e+01 -5.9214645522695839e+01 -5.9214725654294583e+01 -5.9214645439177509e+01 -5.9214725579279175e+01 -5.9214645165873755e+01 -5.9214725294666991e+01 -6.1345817629774444e+01 -6.1345817976200159e+01 -6.1345817061584412e+01
 -5.9214894630322192e+01 -5.9214894551440622e+01 -5.9214894238950599e+01 -6.1345196911600269e+01 -6.1345414043152843e+01 -6.1345195669778469e+01 -6.1345412323038609e+01 -5.9214644797324574e+01 -5.9214724875812259e+01 -5.9214644614554111e+01
 -5.9214724658683515e+01 -6.1345814041430458e+01 -6.1345812045535268e+01 -5.9214893768053116e+01 -5.9214893521551083e+01 -5.4908498386364819e+01 -5.4908518201612225e+01 -5.4908498375492734e+01 -5.4908518190467490e+01 -5.4908498346995401e+01
 -5.4908518160616154e+01 -5.4908564504836917e+01 -5.4908564492866006e+01 -5.4908564460508458e+01 -5.4908498315402305e+01 -5.4908518126751432e+01 -5.4908498301365618e+01 -5.4908518111480923e+01 -5.4908564423443870e+01 -5.4908564406633630e+01
 -6.1346133166541598e+01 -6.1346133507794796e+01 -6.1346132516332112e+01 -5.9215039093662647e+01 -5.9215039008788928e+01 -5.9215038676282255e+01 -6.1346221271861715e+01 -6.1346221606798302e+01 -6.1346220589849885e+01 -5.9215077986875947e+01
 -5.9215077899730474e+01 -5.9215077560720225e+01 -6.1346129335819469e+01 -6.1346127246335143e+01 -5.9215038177886761e+01 -5.9215037917667019e+01 -6.1346217370129004e+01 -6.1346215260102994e+01 -5.9215077054422800e+01 -5.9215076790503971e+01
 -5.4908610137500794e+01 -5.4908610124845126e+01 -5.4908610090652644e+01 -5.4908631089493113e+01 -5.4908631076588755e+01 -5.4908631041758177e+01 -5.4908610051502457e+01 -5.4908610033752531e+01 -5.4908631001917477e+01 -5.4908630983865869e+01
 -5.0542780260488875e+01 -5.0542792338616472e+01 -5.0542780259290232e+01 -5.0542792337376213e+01 -5.0542780256303132e+01 -5.0542792334283597e+01 -5.0542824629695566e+01 -5.0542824628379250e+01 -5.0542824625091519e+01 -5.0542780253169575e+01
 -5.0542792331029979e+01 -5.0542780251819437e+01 -5.0542792329628192e+01 -5.0542824621625435e+01 -5.0542824620130929e+01 -4.6117552649827488e+01 -4.6117572765832918e+01 -4.6117552649605329e+01 -4.6117572765603022e+01 -4.6117552649037812e+01
 -4.6117572765025137e+01 -4.6117629605807736e+01 -4.6117629605570507e+01 -4.6117629604976834e+01 -4.6117552648407845e+01 -4.6117572764390495e+01 -4.6117552648116956e+01 -4.6117572764101283e+01 -4.6117629604327860e+01 -4.6117629604033574e+01
 -5.0542867494094182e+01 -5.0542867492715921e+01 -5.0542867489273469e+01 -5.0542909989970916e+01 -5.0542909988563174e+01 -5.0542909985048290e+01 -5.0542867485645310e+01 -5.0542867484081604e+01 -5.0542909981346085e+01 -5.0542909979751300e+01
 -4.6117713471344466e+01 -4.6117713471100579e+01 -4.6117713470491204e+01 -4.6117810580070014e+01 -4.6117810579816506e+01 -4.6117810579183953e+01 -4.6117713469827017e+01 -4.6117713469526720e+01 -4.6117810578496872e+01 -4.6117810578187274e+01
 -4.1632751138751225e+01 -4.1632793325502938e+01 -4.1632751138650420e+01 -4.1632793325398005e+01 -4.1632751138373244e+01 -4.1632793325117532e+01 -4.1632913508330368e+01 -4.1632913508223609e+01 -4.1632913507940664e+01 -4.1632751138026876e+01
 -4.1632793324772898e+01 -4.1632751137847762e+01 -4.1632793324597401e+01 -4.1632913507595312e+01 -4.1632913507420405e+01 -3.7088199077266907e+01 -3.7088288845059033e+01 -3.7088199077530739e+01 -3.7088288845319816e+01 -3.7088199078129108e+01
 -3.7088288845915947e+01 -3.7088545100764854e+01 -3.7088545101024422e+01 -3.7088545101619232e+01 -3.7088199078647740e+01 -3.7088288846436328e+01 -3.7088199078819208e+01 -3.7088288846610730e+01 -3.7088545102139861e+01 -3.7088545102315130e+01
 -4.1633093504767920e+01 -4.1633093504658937e+01 -4.1633093504371132e+01 -4.1633306035556707e+01 -4.1633306035439645e+01 -4.1633306035132485e+01 -4.1633093504021701e+01 -4.1633093503845473e+01 -4.1633306034764153e+01 -4.1633306034580379e+01
 -3.7088930345269794e+01 -3.7088930345527018e+01 -3.7088930346116676e+01 -3.7089387487466105e+01 -3.7089387487713637e+01 -3.7089387488280067e+01 -3.7088930346632964e+01 -3.7088930346806841e+01 -3.7089387488773745e+01 -3.7089387488938620e+01
 -7.0478889853107930e+01 -7.0470672075512468e+01 -7.0494599031962665e+01 -7.0486381589509264e+01 -7.0455506188098639e+01 -7.0471218622530372e+01 -7.0423356424442247e+01 -7.0439082312098478e+01 -7.0372700334929306e+01 -7.0389887794866667e+01
 -7.0202703573008478e+01 -7.0252828755568657e+01 -6.9961160454276907e+01 -6.9992591246396358e+01 -6.9713842825312781e+01 -6.9730581057305173e+01 -7.0494599031962665e+01 -7.0486381726448144e+01 -7.0471218890120454e+01 -7.0439083459376562e+01
 -7.0389927698413459e+01 -7.0255894586662080e+01 -6.9996938584595895e+01 -6.9735104389356366e+01 -6.7651465297621613e+01 -6.7652852762698018e+01 -6.7653498131487154e+01 -7.0478889853107930e+01 -7.0470672075512397e+01 -7.0494599031962665e+01
 -7.0486381589509136e+01 -7.0455506188089146e+01 -7.0471218622528980e+01 -7.0423356407292147e+01 -7.0439082308263451e+01 -7.0372692679002128e+01 -7.0389884381966453e+01 -7.0202324225637241e+01 -7.0252476145046032e+01 -6.9960415596261626e+01
 -6.9991834830268914e+01 -6.9712769119094062e+01 -6.9729468435113901e+01 -7.0494599031962665e+01 -7.0486381726448030e+01 -7.0471218890119061e+01 -7.0439083455559512e+01 -7.0389924300547037e+01 -7.0255542674034899e+01 -6.9996171361825176e+01
 -6.9733971131224521e+01 -6.7649634675788633e+01 -6.7651009639481657e+01 -6.7651648250879447e+01 -7.0494599031962665e+01 -7.0486381574584257e+01 -7.0471218593362650e+01 -7.0439082186016307e+01 -7.0389882598497636e+01 -7.0252412933524425e+01
 -6.9991911518194485e+01 -6.9729767233899196e+01 -7.0477177747777048e+01 -7.0468959917445389e+01 -7.0453793570904537e+01 -7.0421641364776448e+01 -7.0370741297172685e+01 -7.0197942331466024e+01 -6.9957719923618612e+01 -6.9711495685787014e+01
 -6.7652580066038809e+01 -6.7651002964559993e+01 -7.0494599031962665e+01 -7.0486381574584144e+01 -7.0471218593361257e+01 -7.0439082182205311e+01 -7.0389879207198277e+01 -7.0252062671009028e+01 -6.9991161507890382e+01 -6.9728664452779782e+01
 -7.0477177747777048e+01 -7.0468959917445360e+01 -7.0453793570892870e+01 -7.0421641344970368e+01 -7.0370733095873817e+01 -7.0197568182269237e+01 -6.9956986962388541e+01 -6.9710439247310902e+01 -6.7650745255789545e+01 -6.7649184676737292e+01
 -6.5564429923642805e+01 -6.5564546469481769e+01 -6.5564605729844686e+01 -6.3462467207987778e+01 -6.3462476038478677e+01 -6.3462477762800539e+01 -6.5563105175721375e+01 -6.5563219892688934e+01 -6.5563278585609211e+01 -6.3461697020628129e+01
 -6.3461705692718120e+01 -6.3461707555846459e+01 -6.5564475722598374e+01 -6.5564324958455416e+01 -6.3462458657849162e+01 -6.3462442313263907e+01 -6.5563152260402759e+01 -6.5563004679899635e+01 -6.3461689226675546e+01 -6.3461673425352593e+01
 -7.0478889853107930e+01 -7.0470672068045289e+01 -7.0494599031962665e+01 -7.0486381551541271e+01 -7.0455506173430109e+01 -7.0471218548328224e+01 -7.0423356258396495e+01 -7.0439081973001421e+01 -7.0372653132097057e+01 -7.0389858135752107e+01
 -7.0200400031965074e+01 -7.0250065666022905e+01 -6.9956819765311820e+01 -6.9987408598202165e+01 -6.9707824640151799e+01 -6.9723624978129578e+01 -7.0494599031962665e+01 -7.0486381688479796e+01 -7.0471218815916743e+01 -7.0439083119319832e+01
 -7.0389897196650253e+01 -7.0253038134679926e+01 -6.9991505174371042e+01 -6.9727790771219574e+01 -6.7645346261052310e+01 -6.7646589737127385e+01 -6.7647158442670744e+01 -7.0477177747777063e+01 -7.0468959278359705e+01 -7.0477177747777063e+01
 -7.0468959426052180e+01 -7.0453792320437131e+01 -7.0453792609362239e+01 -7.0421635365233882e+01 -7.0421636674332632e+01 -7.0370385052770530e+01 -7.0370435497633409e+01 -7.0184138247716874e+01 -7.0185878448105058e+01 -6.9936326315337539e+01
 -6.9938580433781382e+01 -6.9685854107889767e+01 -6.9688115537587080e+01 -7.0477177747777063e+01 -7.0468959426056358e+01 -7.0453792609390902e+01 -7.0421636696532744e+01 -7.0370444574669349e+01 -7.0186284906747431e+01 -6.9939282372439067e+01
 -6.9689008125775317e+01 -6.7638236585570851e+01 -6.7638581561365314e+01 -6.7638764708770410e+01 -7.0494599031962665e+01 -7.0486381536616349e+01 -7.0471218519160857e+01 -7.0439081847203383e+01 -7.0389853189427171e+01 -7.0249676432591301e+01
 -6.9986791281539340e+01 -6.9722900905712848e+01 -7.0477177747777048e+01 -7.0468959917440515e+01 -7.0453793570818277e+01 -7.0421641247767795e+01 -7.0370692972764061e+01 -7.0195742633850131e+01 -6.9953543444829563e+01 -6.9705672308015565e+01
 -6.7646361442440636e+01 -6.7644954045767804e+01 -7.0477177747777063e+01 -7.0468959426051697e+01 -7.0453792609357592e+01 -7.0421636669386331e+01 -7.0370433462495313e+01 -7.0185787108026275e+01 -6.9938412509454508e+01 -6.9687888443509451e+01
 -7.0477177747777063e+01 -7.0468959262262544e+01 -7.0453792288941472e+01 -7.0421635218732703e+01 -7.0370378016584226e+01 -7.0183882743267461e+01 -6.9935936438681011e+01 -6.9685392304107154e+01 -6.7638457354615653e+01 -6.7638045030030995e+01
 -6.5560888196002125e+01 -6.5560988714697345e+01 -6.5561039728711350e+01 -6.3460657277338235e+01 -6.3460664684867901e+01 -6.3460666169515818e+01 -6.5558786771278548e+01 -6.5558825414782376e+01 -6.5558842705365848e+01 -6.3459971813894924e+01
 -6.3459974936622267e+01 -6.3459974065771462e+01 -6.5560930709297239e+01 -6.5560801867089054e+01 -6.3460650424948135e+01 -6.3460636842697653e+01 -6.5558784859358198e+01 -6.5558728023623786e+01 -6.3459963500216070e+01 -6.3459955530435039e+01
 -6.1346041191567743e+01 -6.1346041532817708e+01 -6.1346040541181395e+01 -5.9214984500502261e+01 -5.9214984415580638e+01 -5.9214984082942962e+01 -6.1345635882857842e+01 -6.1345636229270170e+01 -6.1345635314128707e+01 -5.9214789716648134e+01
 -5.9214789637592716e+01 -5.9214789324625265e+01 -6.1346037360283027e+01 -6.1346035270569317e+01 -5.9214983584395206e+01 -5.9214983324105326e+01 -6.1345632292818358e+01 -6.1345630296229928e+01 -5.9214788853162752e+01 -5.9214788606392830e+01
 -5.4908617491555759e+01 -5.4908617478857813e+01 -5.4908617444560214e+01 -5.4908577449658367e+01 -5.4908577437520954e+01 -5.4908577404735965e+01 -5.4908617405300085e+01 -5.4908617387502638e+01 -5.4908577367198006e+01 -5.4908577350169999e+01
 -6.1345159658699544e+01 -6.1345159928018674e+01 -6.1345159088259820e+01 -5.9214582358088933e+01 -5.9214582282555526e+01 -5.9214581996502218e+01 -6.1344907791322292e+01 -6.1344907781953161e+01 -6.1344906850802850e+01 -5.9214486941671140e+01
 -5.9214486857120875e+01 -5.9214486580898424e+01 -6.1345156462228687e+01 -6.1345154740466569e+01 -5.9214581575877773e+01 -5.9214581357864006e+01 -6.1344904775288910e+01 -6.1344903530881744e+01 -5.9214486208604185e+01 -5.9214486023843627e+01
 -5.4908534192932876e+01 -5.4908534181269928e+01 -5.4908534150026924e+01 -5.4908515232683854e+01 -5.4908515220770525e+01 -5.4908515189344797e+01 -5.4908534114496106e+01 -5.4908534098390810e+01 -5.4908515153965887e+01 -5.4908515137866168e+01
 -5.0542943850348024e+01 -5.0542943848928807e+01 -5.0542943845384841e+01 -5.0542965617644832e+01 -5.0542965616164352e+01 -5.0542965612454751e+01 -5.0542943841650974e+01 -5.0542943840041680e+01 -5.0542965608519587e+01 -5.0542965606807343e+01
 -4.6117905729784276e+01 -4.6117905729499832e+01 -4.6117905728789928e+01 -4.6117984838600812e+01 -4.6117984838200094e+01 -4.6117984837185205e+01 -4.6117905728021228e+01 -4.6117905727675890e+01 -4.6117984836065474e+01 -4.6117984835550573e+01
 -5.0542976409659566e+01 -5.0542976407898976e+01 -5.0542976403399216e+01 -5.0542979430457812e+01 -5.0542979428193775e+01 -5.0542979422168223e+01 -5.0542976398434661e+01 -5.0542976396154948e+01 -5.0542979414996914e+01 -5.0542979411359688e+01
 -4.6118036878991113e+01 -4.6118036878237206e+01 -4.6118036876231280e+01 -4.6118054991073670e+01 -4.6118054989761028e+01 -4.6118054986037272e+01 -4.6118036873831279e+01 -4.6118036872612265e+01 -4.6118054981086829e+01 -4.6118054978240934e+01
 -4.1633518803451096e+01 -4.1633518803301371e+01 -4.1633518802912690e+01 -4.1633699369046177e+01 -4.1633699368775609e+01 -4.1633699368069891e+01 -4.1633518802458646e+01 -4.1633518802237461e+01 -4.1633699367250188e+01 -4.1633699366850983e+01
 -3.7089847632490063e+01 -3.7089847632701165e+01 -3.7089847633177030e+01 -3.7090240128469866e+01 -3.7090240128554470e+01 -3.7090240128698944e+01 -3.7089847633576170e+01 -3.7089847633700074e+01 -3.7090240128716012e+01 -3.7090240128652830e+01
 -4.1633820115232453e+01 -4.1633820114599359e+01 -4.1633820112869167e+01 -4.1633862532205860e+01 -4.1633862530990690e+01 -4.1633862527439327e+01 -4.1633820110702388e+01 -4.1633820109539769e+01 -4.1633862522467389e+01 -4.1633862519418329e+01
 -3.7090503637554541e+01 -3.7090503637267915e+01 -3.7090503636356736e+01 -3.7090596409017927e+01 -3.7090596408128427e+01 -3.7090596405296075e+01 -3.7090503634961244e+01 -3.7090503634071005e+01 -3.7090596400821831e+01 -3.7090596397735261e+01
 -3.2483515726409465e+01 -3.2483705266464106e+01 -3.2483515730707687e+01 -3.2483705270761426e+01 -3.2483515741041451e+01 -3.2483705281096881e+01 -3.2484247591663234e+01 -3.2484247595961939e+01 -3.2484247606302098e+01 -3.2483515751284443e+01
 -3.2483705291344620e+01 -3.2483515755474855e+01 -3.2483705295538662e+01 -3.2484247616555905e+01 -3.2484247620753123e+01 -2.7817902701114093e+01 -2.7818297193750155e+01 -2.7817902750918737e+01 -2.7818297243578908e+01 -2.7817902871127146e+01
 -2.7818297363848405e+01 -2.7819430601334187e+01 -2.7819430651215697e+01 -2.7819430771613721e+01 -2.7817902991256915e+01 -2.7818297484041473e+01 -2.7817903040960278e+01 -2.7818297533772281e+01 -2.7819430891936555e+01 -2.7819430941721716e+01
 -3.2485066448805995e+01 -3.2485066453099833e+01 -3.2485066463428709e+01 -3.2486043782278422e+01 -3.2486043786544997e+01 -3.2486043796808261e+01 -3.2485066473672113e+01 -3.2485066477865466e+01 -3.2486043806986828e+01 -3.2486043811153806e+01
 -2.7821155293800388e+01 -2.7821155343688275e+01 -2.7821155464102233e+01 -2.7823235534448706e+01 -2.7823235584156730e+01 -2.7823235704136682e+01 -2.7821155584442003e+01 -2.7821155634234689e+01 -2.7823235824043422e+01 -2.7823235873657371e+01
 -2.3089718847698990e+01 -2.3090518573861317e+01 -2.3089719410524673e+01 -2.3090519137076424e+01 -2.3089720769865117e+01 -2.3090520497359861e+01 -2.3092833582558733e+01 -2.3092834146673344e+01 -2.3092835509130804e+01 -2.3089722129964102e+01
 -2.3090521858404305e+01 -2.3089722693518894e+01 -2.3090522422351867e+01 -2.3092836872352343e+01 -2.3092837437202800e+01 -1.8295705805394558e+01 -1.8297247432191590e+01 -1.8295712144654861e+01 -1.8297253776945375e+01 -1.8295727469582101e+01
 -1.8297269115168881e+01 -1.8301771280410751e+01 -1.8301777638431343e+01 -1.8301793008738713e+01 -1.8295742824159213e+01 -1.8297284483084560e+01 -1.8295749193052924e+01 -1.8297290857514763e+01 -1.8301808408811972e+01 -1.8301814796582960e+01
 -2.3096407057039663e+01 -2.3096407621785744e+01 -2.3096408985769784e+01 -2.3100802555588519e+01 -2.3100803119133023e+01 -2.3100804480217420e+01 -2.3096410350521197e+01 -2.3096410916006572e+01 -2.3100805842071743e+01 -2.3100806406358291e+01
 -1.8308939283703349e+01 -1.8308945655128387e+01 -1.8308961057855552e+01 -1.8318082702989138e+01 -1.8318089071716340e+01 -1.8318104467988444e+01 -1.8308976490431640e+01 -1.8308982891690260e+01 -1.8318119894193810e+01 -1.8318126292839125e+01
 -1.3429743448088255e+01 -1.3432430928821825e+01 -1.3429814605759450e+01 -1.3432502160931532e+01 -1.3429987087925650e+01 -1.3432674824155479e+01 -1.3440515457648955e+01 -1.3440586869413654e+01 -1.3440759968336968e+01 -1.3430160581026344e+01
 -1.3432848499938864e+01 -1.3430232751057288e+01 -1.3432920746033622e+01 -1.3440934082384080e+01 -1.3441006510696569e+01 -1.0966271278818002e+01 -1.0967168114018728e+01 -1.0966616600382880e+01 -1.0969484469088949e+01 -1.0969830238141670e+01
 -1.0967511159400610e+01 -1.0967459332625284e+01 -1.0970674078554735e+01 -1.0968348238436963e+01 -8.4780084659007962e+00 -8.4794190906886353e+00 -8.4788733481334848e+00 -8.4802844873621019e+00 -8.4814882049809448e+00 -8.4829010717887829e+00
 -8.4829129771834548e+00 -8.4837797613937482e+00 -8.4864007735155305e+00 -1.0973658389783727e+01 -1.0979369382026887e+01 -1.0979716135490529e+01 -1.0974002209062714e+01 -1.0980562380761551e+01 -1.0974841189996276e+01 -8.4859911101045569e+00
 -8.4874059177918149e+00 -8.4925407228911887e+00 -8.4939578915493374e+00 -8.4909104807482656e+00 -8.4974682794659344e+00 -1.0968315556016144e+01 -1.0971531440254429e+01 -1.0969198563704396e+01 -1.0968674406076978e+01 -1.0971890767950113e+01
 -1.0969554891614949e+01 -8.4865425752258510e+00 -8.4874108760924099e+00 -8.4900365737137555e+00 -8.4880895917759869e+00 -8.4889585368128344e+00 -8.4915862195880365e+00 -1.0981422182364959e+01 -1.0975693455644684e+01 -1.0981782529461023e+01
 -1.0976050595894506e+01 -8.4945513336674132e+00 -8.5011151165141587e+00 -8.4961031112023377e+00 -8.5026694137697003e+00 -1.3453952517352816e+01 -1.3454024144953712e+01 -1.3454197766949962e+01 -1.3472286352058285e+01 -1.3472358094513984e+01
 -1.3472531996462696e+01 -1.3454372406887087e+01 -1.3454445053851297e+01 -1.3472706920211744e+01 -1.3472779685886270e+01 -1.0987094165865734e+01 -1.0996529379504432e+01 -1.0996877382055464e+01 -1.0987439100274235e+01 -1.0997726667320318e+01
 -1.0988280796384920e+01 -8.5013989564255255e+00 -8.5028184620698291e+00 -8.5128421652581494e+00 -8.5142646433515594e+00 -8.5063345865841828e+00 -8.5177880721342163e+00 -1.1008121259792459e+01 -1.1021503603234892e+01 -1.1021852889536044e+01
 -1.1008467527740564e+01 -1.1022705315867460e+01 -1.1009312473865050e+01 -8.5272362286248828e+00 -8.5286619630414471e+00 -8.5449209505248191e+00 -8.5463505405647187e+00 -8.5321934183435104e+00 -8.5498915595163822e+00 -1.0998589543633074e+01
 -1.0989135808180773e+01 -1.0998951174493877e+01 -1.0989494094487990e+01 -8.5099872924472333e+00 -8.5214482708553234e+00 -8.5115440585557636e+00 -8.5230081977034136e+00 -1.1023571394462413e+01 -1.1010170780054075e+01 -1.1023934370220651e+01
 -1.1010530444236480e+01 -8.5358618891227476e+00 -8.5535699757482693e+00 -8.5374253173743391e+00 -8.5551376408219202e+00 -5.9566881978703945e+00 -5.9574361708793093e+00 -5.9621119619390299e+00 -5.9628631261176439e+00 -5.9597834144034936e+00
 -5.9652181206555781e+00 -5.9760361035713458e+00 -5.9767976115852930e+00 -5.9791748958794200e+00 -3.3709974923229402e+00 -3.3709227295620310e+00 -3.3756781358692161e+00 -3.3710846980664608e+00 -3.3894823122617073e+00 -3.3756071480287262e+00
 -3.3896446214246390e+00 -3.3757655892745202e+00 -3.3895511683819937e+00 -3.3715142164771166e+00 -3.3761956162275522e+00 -3.3721604633495499e+00 -3.3907478972527625e+00 -3.3768467798730337e+00 -3.3900824594016581e+00 -3.4123008874072638e+00
 -3.4424018904691440e+00 -3.4122317316389119e+00 -3.4426489324198961e+00 -3.4124235181991422e+00 -3.4424731729330063e+00 -3.4128797753718967e+00 -3.4438868056025722e+00 -3.4135798738222434e+00 -3.4431326706005820e+00 -5.9639651392251514e+00
 -5.9694086954797285e+00 -5.9702868325889868e+00 -5.9757389847183866e+00 -5.9833888472941377e+00 -5.9897409497719893e+00 -3.3733000765747776e+00 -3.3779892636450630e+00 -3.3747552617754155e+00 -3.3933754932295188e+00 -3.3794498426243758e+00
 -3.3919013847382375e+00 -3.3767816863405118e+00 -3.3814787709445575e+00 -3.3791963631565674e+00 -3.3978443388530537e+00 -3.3838984235104825e+00 -3.3954132119199194e+00 -3.4147488545839546e+00 -3.4466171272598793e+00 -3.4162514713419894e+00
 -3.4450728287684820e+00 -3.4182986328816951e+00 -3.4511619119900772e+00 -3.4207541326180682e+00 -3.4486711896005220e+00 -5.9913001168114830e+00 -5.9920740205851502e+00 -5.9944766785405479e+00 -5.9980759552529133e+00 -5.9988551223812774e+00
 -6.0012686086156126e+00 -3.4770276700803513e+00 -3.5102506074676367e+00 -3.4769590444817156e+00 -3.5106293114057143e+00 -3.4772787325580499e+00 -3.5103045140847504e+00 -3.4777874274724070e+00 -3.5120474310412164e+00 -3.4786135401165215e+00
 -3.5111485592317941e+00 -3.5349232705178055e+00 -3.5441625852533329e+00 -3.5348867683552747e+00 -3.5445905982127748e+00 -3.5353028216229569e+00 -3.5441890238701244e+00 -3.5358216542762908e+00 -3.5460811816231002e+00 -3.5367756656618581e+00
 -3.5451047828472553e+00 -5.9987160249029330e+00 -6.0050912408817938e+00 -6.0055188085732176e+00 -6.0119039129836418e+00 -3.4798090309840166e+00 -3.5149007071773912e+00 -3.4814094695098006e+00 -3.5132410107580467e+00 -3.4834609271116022e+00
 -3.5195326194261454e+00 -3.4860006767015630e+00 -3.5169398169455115e+00 -3.5379616156622840e+00 -3.5489868593261100e+00 -3.5396682015678689e+00 -3.5472604472402103e+00 -3.5416931746830174e+00 -3.5536574936382417e+00 -3.5443291298323216e+00
 -3.5510030315324976e+00 -2.0148665300884816e+00 -2.0214234205324071e+00 -2.0153597881724714e+00 -2.0220105316813912e+00 -2.0141143585890005e+00 -2.0206003761819025e+00 -2.0435256507828248e+00 -2.0428796194742822e+00 -2.0419998393065315e+00
 -6.0682360627490806e-01 -6.0360274081084608e-01 -6.0993994501617288e-01 -6.0480184682185978e-01 -6.0045992638692269e-01 -6.0081375132857828e-01 -6.2817531427123030e-01 -6.2224354381002855e-01 -6.1757310665030341e-01 -2.0136328357877065e+00
 -2.0200908999303393e+00 -2.0135829588782341e+00 -2.0200355703095738e+00 -2.0414750575980465e+00 -2.0414293002131059e+00 -5.9864700118806502e-01 -5.9875186576595330e-01 -5.9783982132341296e-01 -5.9788328036551708e-01 -6.1526755727825211e-01
 -6.1434200526252236e-01 -2.0821323596530732e+00 -2.0827529119679515e+00 -2.0813114522869549e+00 -2.1428373918672925e+00 -2.1423473487227276e+00 -2.1417303736770550e+00 -6.7109627885194734e-01 -6.6520289940497801e-01 -6.6061147022275368e-01
 -7.5648208197465461e-01 -7.5157881423261652e-01 -7.4795935595626450e-01 -2.0808518762435684e+00 -2.0808638468795033e+00 -2.1414360219495783e+00 -2.1415625836154546e+00 -6.5839512495675345e-01 -6.5754002992423810e-01 -7.4625145155756645e-01
 -7.4563227110364261e-01 -2.5428432010568980e-01 -2.4870322996985084e-01 -2.5335962788960931e-01 -2.3928197352677402e-01 9.3609164698811295e-02 1.0062144689069200e-01 9.8127229696903559e-02 1.3048855154786865e-01 3.7033386378691896e-01
 3.7067170477845979e-01 3.7061665566093299e-01 3.8787725878041873e-01 4.2333367047217085e-01 4.2335125898555126e-01 4.2335113561471727e-01 4.3840520303763292e-01 -2.4523695728283812e-01 -2.3391564859363700e-01 1.0339101922147396e-01
 1.3601935418415587e-01 3.7073429302521510e-01 3.8798212944442867e-01 4.2335141396924558e-01 4.3840985904025315e-01 -2.6578804692302022e-01 -2.4985354603363497e-01 9.2303048605721333e-02 1.2742496094677883e-01 3.7049021199897259e-01
 3.8789131139603811e-01 4.2335086728583449e-01 4.3840975397131116e-01 -2.4307239552872162e-01 1.3540460985970337e-01 3.8872122391773706e-01 4.3906746192609925e-01 4.5545530104574528e-01 4.5545941235074394e-01 4.5545941241801136e-01