DF-ISE text

Info {
  version = 1.0
  type    = dataset
  dimension   = 3
  nb_vertices = 5293
  nb_edges    = 23303
  nb_faces    = 30690
  nb_elements = 12980
  nb_regions  = 3
  datasets    = [ "ElectrostaticPotential" "ContactExternalVoltage" "ContactCurrentFlux" "ContactCharge" "eQuasiFermiPotential" "hQuasiFermiPotential" "QuasiFermiPotential" "LatticeTemperature" ]
  functions   = [ ElectrostaticPotential ContactExternalVoltage ContactCurrentFlux ContactCharge eQuasiFermiPotential hQuasiFermiPotential QuasiFermiPotential LatticeTemperature ]
}

Data {

  Dataset ("ElectrostaticPotential") {
    function  = ElectrostaticPotential
    type      = scalar
    dimension = 1
    location  = vertex
    validity  = [ "substrate" ]
    Values (5293) {
 -7.0378889853107935e+01 -7.0370671524059716e+01 -7.0378889853107935e+01 -7.0378889853107935e+01 -7.0370672071854585e+01 -7.0370671661004295e+01 -7.0394599031962684e+01 -7.0386381551615344e+01 -7.0355505112804764e+01 -7.0355506184390620e+01
 -7.0355505380661214e+01 -7.0371218551965299e+01 -7.0323351352673967e+01 -7.0323356348707506e+01 -7.0323352557101387e+01 -7.0339082006692436e+01 -7.0272404580690349e+01 -7.0272668259169137e+01 -7.0272450722437171e+01 -7.0289864606969758e+01
 -7.0090281911368251e+01 -7.0101118159284340e+01 -7.0092012667133730e+01 -7.0150703101302483e+01 -6.9842067579600780e+01 -6.9858187755367055e+01 -6.9844314110125694e+01 -6.9888728142246990e+01 -6.9591212559610653e+01 -6.9609787625377251e+01
 -6.9593468311175656e+01 -6.9625562787988116e+01 -7.0378889853107935e+01 -7.0370671661007876e+01 -7.0394599031962684e+01 -7.0386381688553428e+01 -7.0355505380685102e+01 -7.0371218819553135e+01 -7.0323352575885195e+01 -7.0339083152824116e+01
 -7.0272458999724947e+01 -7.0289903507019247e+01 -7.0092416318813321e+01 -7.0153660562960539e+01 -6.9845013191274234e+01 -6.9892812236460813e+01 -6.9594358201005846e+01 -6.9629719053400905e+01 -6.7544331555159488e+01 -6.7550615966236748e+01
 -6.7544675808464206e+01 -6.7551857429200581e+01 -6.7544858510923007e+01 -6.7552425008771678e+01 -7.0378889853107935e+01 -7.0370672071858166e+01 -7.0394599031962684e+01 -7.0386381585851396e+01 -7.0355506184445147e+01 -7.0371218618872334e+01
 -7.0323356423832479e+01 -7.0339082308852298e+01 -7.0272701691969829e+01 -7.0289888162634782e+01 -7.0102771427252677e+01 -7.0152867414786030e+01 -6.9861316153943037e+01 -6.9892700788620800e+01 -6.9614121578522372e+01 -6.9630802010818769e+01
 -7.0394599031962684e+01 -7.0386381722789864e+01 -7.0371218886461946e+01 -7.0339083456020276e+01 -7.0289927968601418e+01 -7.0155923251370538e+01 -6.9897028077772902e+01 -6.9635297333261860e+01 -6.7554418776901727e+01 -6.7555792098712260e+01
 -6.7556429767720289e+01 -7.0378889853107935e+01 -7.0370671661003897e+01 -7.0394599031962684e+01 -7.0386381536690493e+01 -7.0355505380657448e+01 -7.0371218522798046e+01 -7.0323352552914429e+01 -7.0339081880916154e+01 -7.0272448865299495e+01
 -7.0289859679108531e+01 -7.0091921899625831e+01 -7.0150315546995770e+01 -6.9844146764305790e+01 -6.9888112209636702e+01 -6.9593241777704847e+01 -6.9624839831649552e+01 -7.0378889853107935e+01 -7.0370671509134041e+01 -7.0377177747777054e+01
 -7.0368959921836094e+01 -7.0355505083606261e+01 -7.0353793582931658e+01 -7.0323351218157555e+01 -7.0321641348755776e+01 -7.0272398145969248e+01 -7.0270709477018812e+01 -7.0090027697628301e+01 -7.0096464164498741e+01 -6.9841678809906071e+01
 -6.9854913980545845e+01 -6.9590751696455911e+01 -6.9607637147133190e+01 -6.7544551791698325e+01 -6.7551629398220115e+01 -6.7544140278760835e+01 -6.7550224140834175e+01 -7.0394599031962684e+01 -7.0386381570926460e+01 -7.0371218589704711e+01
 -7.0339082182809349e+01 -7.0289883001081833e+01 -7.0152455170303000e+01 -6.9892028518408793e+01 -6.9629998912474150e+01 -7.0377177747777054e+01 -7.0368959913791741e+01 -7.0353793567252325e+01 -7.0321641365090230e+01 -7.0270742936889988e+01
 -7.0098017737862619e+01 -6.9857889369315600e+01 -6.9611793133400880e+01 -6.7555527944653647e+01 -6.7553969114166762e+01 -6.5467274561214410e+01 -6.5469141063030548e+01 -6.5467313127014137e+01 -6.5469241414955576e+01 -6.5467330371852839e+01
 -6.5469292323958840e+01 -6.3371322885491800e+01 -6.3371926059088565e+01 -6.3371326001982169e+01 -6.3371933453667801e+01 -6.3371325131446461e+01 -6.3371934932719462e+01 -6.5471091698531907e+01 -6.5471206270393196e+01 -6.5471264870346090e+01
 -6.3372824130849054e+01 -6.3372832790894137e+01 -6.3372834648207565e+01 -6.5467272628232152e+01 -6.5469183473344913e+01 -6.5467215894538455e+01 -6.5469054825424124e+01 -6.3371314584702901e+01 -6.3371919211038090e+01 -6.3371306629325176e+01
 -6.3371905649022480e+01 -6.5471138695296261e+01 -6.5470991284348486e+01 -6.3372816339386446e+01 -6.3372800556186228e+01 -7.0378889853107935e+01 -7.0370672071858166e+01 -7.0394599031962684e+01 -7.0386381585851453e+01 -7.0355506184453304e+01
 -7.0371218618873542e+01 -7.0323356438832889e+01 -7.0339082312231852e+01 -7.0272708389144654e+01 -7.0289891170132449e+01 -7.0103103406986023e+01 -7.0153178185583400e+01 -6.9861968510480082e+01 -6.9893368255047662e+01 -6.9615062178985085e+01
 -6.9631783567658374e+01 -7.0394599031962684e+01 -7.0386381722789935e+01 -7.0371218886463140e+01 -7.0339083459394914e+01 -7.0289930972575462e+01 -7.0156234410737483e+01 -6.9897707330499998e+01 -6.9636300338993408e+01 -6.7556006149160538e+01
 -6.7557392155525790e+01 -6.7558036687382270e+01 -7.0378889853107935e+01 -7.0370672071858181e+01 -7.0394599031962684e+01 -7.0386381585851453e+01 -7.0355506184454740e+01 -7.0371218618873698e+01 -7.0323356441467396e+01 -7.0339082312792740e+01
 -7.0272709565394123e+01 -7.0289891669999207e+01 -7.0103161741453434e+01 -7.0153229864095351e+01 -6.9862084225639236e+01 -6.9893481173640893e+01 -6.9615231428249785e+01 -6.9631952996567961e+01 -7.0394599031962684e+01 -7.0386381722789935e+01
 -7.0371218886463296e+01 -7.0339083459943581e+01 -7.0289931461712186e+01 -7.0156285105698458e+01 -6.9897820022444293e+01 -6.9636470272676164e+01 -6.7556389352315776e+01 -6.7557776200181493e+01 -6.7558421035148640e+01 -7.0394599031962684e+01
 -7.0386381570926545e+01 -7.0371218589705904e+01 -7.0339082186163395e+01 -7.0289885985683995e+01 -7.0152763473743306e+01 -6.9892689470529390e+01 -6.9630970532188726e+01 -7.0377177747777054e+01 -7.0368959913791699e+01 -7.0353793567262329e+01
 -7.0321641382365542e+01 -7.0270750091342805e+01 -7.0098344281251102e+01 -6.9858529632778669e+01 -6.9612716307549874e+01 -6.7557119663562361e+01 -6.7555544115513072e+01 -7.0394599031962684e+01 -7.0386381570926545e+01 -7.0371218589706061e+01
 -7.0339082186722322e+01 -7.0289886483771468e+01 -7.0152814950719701e+01 -6.9892801737377042e+01 -6.9631138913946458e+01 -7.0377177747777054e+01 -7.0368959913791699e+01 -7.0353793567264120e+01 -7.0321641385432372e+01 -7.0270751361295311e+01
 -7.0098402269228401e+01 -6.9858644310095414e+01 -6.9612883919634868e+01 -6.7557502317951432e+01 -6.7555925312771194e+01 -6.5472213096848606e+01 -6.5472329513470399e+01 -6.5472388690958354e+01 -6.3373452568644176e+01 -6.3373461388278550e+01
 -6.3373463107204387e+01 -6.5472517486498290e+01 -6.5472634045068759e+01 -6.5472693151642417e+01 -6.3373630433120262e+01 -6.3373639254707328e+01 -6.3373640907947724e+01 -6.5472258817628784e+01 -6.5472108204487228e+01 -6.3373444020306714e+01
 -6.3373427691863071e+01 -6.5472562700852052e+01 -6.5472411671556600e+01 -6.3373621664275888e+01 -6.3373605241104208e+01 -6.1259286768147938e+01 -6.1259503837935441e+01 -6.1259286759377069e+01 -6.1259504106917561e+01 -6.1259285831600032e+01
 -6.1259503268783895e+01 -5.9131963408209302e+01 -5.9132043445177459e+01 -5.9131963324725277e+01 -5.9132043370183929e+01 -5.9131963051572619e+01 -5.9132043085723410e+01 -6.1259903754379238e+01 -6.1259904100167567e+01 -6.1259903185724440e+01
 -5.9132212215037249e+01 -5.9132212136174459e+01 -5.9132211823850156e+01 -6.1259283762174448e+01 -6.1259500647463383e+01 -6.1259282521318269e+01 -6.1259498928731816e+01 -5.9131962683266252e+01 -5.9132042667150507e+01 -5.9131962500624745e+01
 -5.9132042450179554e+01 -6.1259900167863684e+01 -6.1259898173629693e+01 -5.9132211353276844e+01 -5.9132211106959090e+01 -5.4832278912349068e+01 -5.4832298703351789e+01 -5.4832278901483001e+01 -5.4832298692213051e+01 -5.4832278873002373e+01
 -5.4832298662379152e+01 -5.4832344948796695e+01 -5.4832344936832193e+01 -5.4832344904493674e+01 -5.4832278841429030e+01 -5.4832298628535852e+01 -5.4832278827401439e+01 -5.4832298613275469e+01 -5.4832344867452917e+01 -5.4832344850654060e+01
 -6.1260218894311890e+01 -6.1260219234901754e+01 -6.1260218243643081e+01 -5.9132356492506851e+01 -5.9132356407654058e+01 -5.9132356075325873e+01 -6.1260306863938332e+01 -6.1260307198210320e+01 -6.1260306181480452e+01 -5.9132395318658226e+01
 -5.9132395231534865e+01 -5.9132394892707552e+01 -6.1260215065576794e+01 -6.1260212977856099e+01 -5.9132355577277615e+01 -5.9132355317254849e+01 -6.1260302964243621e+01 -6.1260300856004164e+01 -5.9132394386763963e+01 -5.9132394123045493e+01
 -5.4832390521929973e+01 -5.4832390509281133e+01 -5.4832390475108951e+01 -5.4832411441452955e+01 -5.4832411428555602e+01 -5.4832411393745744e+01 -5.4832390435984209e+01 -5.4832390418246440e+01 -5.4832411353930993e+01 -5.4832411335891756e+01
 -5.0473023621129187e+01 -5.0473035685587895e+01 -5.0473023619931112e+01 -5.0473035684348197e+01 -5.0473023616945504e+01 -5.0473035681257109e+01 -5.0473067940126001e+01 -5.0473067938810281e+01 -5.0473067935524213e+01 -5.0473023613813595e+01
 -5.0473035678005260e+01 -5.0473023612464218e+01 -5.0473035676604319e+01 -5.0473067932060061e+01 -5.0473067930566465e+01 -4.6054258954806372e+01 -4.6054279049862316e+01 -4.6054258954584185e+01 -4.6054279049632378e+01 -4.6054258954016653e+01
 -4.6054279049054465e+01 -4.6054335830691642e+01 -4.6054335830454377e+01 -4.6054335829860683e+01 -4.6054258953386736e+01 -4.6054279048419900e+01 -4.6054258953095903e+01 -4.6054279048130788e+01 -4.6054335829211794e+01 -4.6054335828917623e+01
 -5.0473110756072366e+01 -5.0473110754694737e+01 -5.0473110751254048e+01 -5.0473153204024982e+01 -5.0473153202617887e+01 -5.0473153199104793e+01 -5.0473110747627935e+01 -5.0473110746065203e+01 -5.0473153195404656e+01 -5.0473153193810845e+01
 -4.6054419609095795e+01 -4.6054419608851866e+01 -4.6054419608242483e+01 -4.6054516617136166e+01 -4.6054516616882609e+01 -4.6054516616250034e+01 -4.6054419607578389e+01 -4.6054419607278199e+01 -4.6054516615563031e+01 -4.6054516615253533e+01
 -4.1575920555948088e+01 -4.1575962699664359e+01 -4.1575920555847169e+01 -4.1575962699559291e+01 -4.1575920555569745e+01 -4.1575962699278563e+01 -4.1576082759907713e+01 -4.1576082759800826e+01 -4.1576082759517625e+01 -4.1575920555223178e+01
 -4.1575962698933743e+01 -4.1575920555044029e+01 -4.1575962698758239e+01 -4.1576082759172095e+01 -4.1576082758997174e+01 -3.7037831951188643e+01 -3.7037921627776520e+01 -3.7037831951452006e+01 -3.7037921628036820e+01 -3.7037831952049274e+01
 -3.7037921628631828e+01 -3.7038177623133443e+01 -3.7038177623392535e+01 -3.7038177623986222e+01 -3.7037831952566819e+01 -3.7037921629151143e+01 -3.7037831952737882e+01 -3.7037921629325155e+01 -3.7038177624505792e+01 -3.7038177624680678e+01
 -4.1576262572794541e+01 -4.1576262572685422e+01 -4.1576262572397361e+01 -4.1576474886918938e+01 -4.1576474886801734e+01 -4.1576474886494296e+01 -4.1576262572047753e+01 -4.1576262571871510e+01 -4.1576474886125780e+01 -4.1576474885941984e+01
 -3.7038562476257930e+01 -3.7038562476514670e+01 -3.7038562477103206e+01 -3.7039019154057812e+01 -3.7039019154304853e+01 -3.7039019154870147e+01 -3.7038562477618434e+01 -3.7038562477791920e+01 -3.7039019155362752e+01 -3.7039019155527242e+01
 -7.0378889853107935e+01 -7.0370672071858166e+01 -7.0394599031962684e+01 -7.0386381585851453e+01 -7.0355506184452864e+01 -7.0371218618873499e+01 -7.0323356438019928e+01 -7.0339082312061933e+01 -7.0272708026161979e+01 -7.0289891018688920e+01
 -7.0103085401081970e+01 -7.0153162526529300e+01 -6.9861932533022454e+01 -6.9893333780427994e+01 -6.9615008900638301e+01 -6.9631731160237308e+01 -7.0394599031962684e+01 -7.0386381722789935e+01 -7.0371218886463112e+01 -7.0339083459230409e+01
 -7.0289930825921587e+01 -7.0156219208876934e+01 -6.9897673273272332e+01 -6.9636248285273041e+01 -6.7555854421786165e+01 -6.7557240515068088e+01 -6.7557885098161918e+01 -7.0378889853107935e+01 -7.0370672071858138e+01 -7.0394599031962684e+01
 -7.0386381585851382e+01 -7.0355506184443428e+01 -7.0371218618872149e+01 -7.0323356420912390e+01 -7.0339082308242382e+01 -7.0272700389215885e+01 -7.0289887619559721e+01 -7.0102706870375826e+01 -7.0152811290663109e+01 -6.9861189043232685e+01
 -6.9892579132476698e+01 -6.9613937017961305e+01 -6.9630620635011255e+01 -7.0394599031962684e+01 -7.0386381722789849e+01 -7.0371218886461762e+01 -7.0339083455429900e+01 -7.0289927442780495e+01 -7.0155868774301595e+01 -6.9896907936134653e+01
 -6.9635117243089084e+01 -6.7554026103825649e+01 -6.7555399731864341e+01 -6.7556037579934411e+01 -7.0394599031962684e+01 -7.0386381570926545e+01 -7.0371218589705862e+01 -7.0339082185992808e+01 -7.0289885833663504e+01 -7.0152747760536130e+01
 -6.9892654945379149e+01 -6.9630918078359969e+01 -7.0377177747777054e+01 -7.0368959913791699e+01 -7.0353793567261761e+01 -7.0321641381408071e+01 -7.0270749694843801e+01 -7.0098326172163610e+01 -6.9858493567822705e+01 -6.9612662955334798e+01
 -6.7556968006652141e+01 -6.7555392364271768e+01 -7.0394599031962684e+01 -7.0386381570926446e+01 -7.0371218589704512e+01 -7.0339082182197089e+01 -7.0289882455955009e+01 -7.0152398853786053e+01 -6.9891906683095499e+01 -6.9629817373493253e+01
 -7.0377177747777054e+01 -7.0368959913791684e+01 -7.0353793567250165e+01 -7.0321641361650777e+01 -7.0270741513727444e+01 -7.0097952810864001e+01 -6.9857761945034198e+01 -6.9611608310447636e+01 -6.7555135527391528e+01 -6.7553576367492056e+01
 -6.5472051443592619e+01 -6.5472167868785348e+01 -6.5472227051473638e+01 -6.3373321078364825e+01 -6.3373329898716328e+01 -6.3373331617788317e+01 -6.5470728234737507e+01 -6.5470842835305746e+01 -6.5470901453181483e+01 -6.3372551749241133e+01
 -6.3372560411613179e+01 -6.3372562269635750e+01 -6.5472097167852255e+01 -6.5471946543986860e+01 -6.3373312529182357e+01 -6.3373296199370792e+01 -6.5470775246144925e+01 -6.5470627800495635e+01 -6.3372543955901882e+01 -6.3372528168614004e+01
 -7.0378889853107935e+01 -7.0370672064391357e+01 -7.0394599031962684e+01 -7.0386381547883843e+01 -7.0355506169784874e+01 -7.0371218544671819e+01 -7.0323356272199817e+01 -7.0339081973068645e+01 -7.0272660923754643e+01 -7.0289861451331134e+01
 -7.0100786050864215e+01 -7.0150408407897203e+01 -6.9857598495645050e+01 -6.9888161159924977e+01 -6.9608999218481543e+01 -6.9624785789827712e+01 -7.0394599031962684e+01 -7.0386381684821984e+01 -7.0371218812259883e+01 -7.0339083119288603e+01
 -7.0289900425844806e+01 -7.0153372773830412e+01 -6.9892250930722227e+01 -6.9628946326541865e+01 -6.7549742576551310e+01 -6.7550984922634143e+01 -6.7551552989447757e+01 -7.0377177747777083e+01 -7.0368959274709141e+01 -7.0377177747777083e+01
 -7.0368959422401133e+01 -7.0353792316798618e+01 -7.0353792605723086e+01 -7.0321635383087255e+01 -7.0321636692035483e+01 -7.0270393950451975e+01 -7.0270444334149843e+01 -7.0084538241233801e+01 -7.0086276666171358e+01 -6.9837122737118150e+01
 -6.9839374718463247e+01 -6.9587047804295125e+01 -6.9589307144292576e+01 -7.0377177747777083e+01 -7.0368959422405197e+01 -7.0353792605751579e+01 -7.0321636714194256e+01 -7.0270453394157443e+01 -7.0086682512643989e+01 -6.9840075757327696e+01
 -6.9590198686723369e+01 -6.7542639390493065e+01 -6.7542984039810307e+01 -6.7543166978411975e+01 -7.0394599031962684e+01 -7.0386381532958993e+01 -7.0371218515504523e+01 -7.0339081847281960e+01 -7.0289856514869413e+01 -7.0150020077330296e+01
 -6.9887544592009817e+01 -6.9624062325439567e+01 -7.0377177747777054e+01 -7.0368959913787165e+01 -7.0353793567176055e+01 -7.0321641264653053e+01 -7.0270701475229231e+01 -7.0096130462135037e+01 -6.9854323538649481e+01 -6.9606847888827687e+01
 -6.7550756775525002e+01 -6.7549350578731378e+01 -7.0377177747777083e+01 -7.0368959422400678e+01 -7.0353792605718482e+01 -7.0321636687095975e+01 -7.0270442301808387e+01 -7.0086185417582769e+01 -6.9839206931290306e+01 -6.9589080216987767e+01
 -7.0377177747777083e+01 -7.0368959258612065e+01 -7.0353792285303044e+01 -7.0321635236602731e+01 -7.0270386920969898e+01 -7.0084282897833816e+01 -6.9836733082531481e+01 -6.9586586258126374e+01 -6.7542859911203578e+01 -6.7542447947699912e+01
 -6.5468513686815442e+01 -6.5468614109320185e+01 -6.5468665061826897e+01 -6.3371513131482665e+01 -6.3371520531124297e+01 -6.3371522011750891e+01 -6.5466414275553888e+01 -6.5466452880321626e+01 -6.5466470146605161e+01 -6.3370828354496702e+01
 -6.3370831473506897e+01 -6.3370830601466288e+01 -6.5468556139606122e+01 -6.5468427408912405e+01 -6.3371506279909674e+01 -6.3371492709187024e+01 -6.5466412349685953e+01 -6.5466355563144987e+01 -6.3370820044052998e+01 -6.3370812080884320e+01
 -6.1260126962458372e+01 -6.1260127303045429e+01 -6.1260126311612488e+01 -5.9132301918245645e+01 -5.9132301833344847e+01 -5.9132301500885319e+01 -6.1259722091659583e+01 -6.1259722437436146e+01 -6.1259721522466329e+01 -5.9132107337770151e+01
 -5.9132107258733328e+01 -5.9132106945930815e+01 -6.1260123133157720e+01 -6.1260121045205828e+01 -5.9132301002684272e+01 -5.9132300742591106e+01 -6.1259718503442215e+01 -6.1259716508510074e+01 -5.9132106474791264e+01 -5.9132106228204982e+01
 -5.4832397850618193e+01 -5.4832397837927033e+01 -5.4832397803649634e+01 -5.4832357846975292e+01 -5.4832357834844160e+01 -5.4832357802077858e+01 -5.4832397764414836e+01 -5.4832397746629468e+01 -5.4832357764563412e+01 -5.4832357747546681e+01
 -6.1259246378500471e+01 -6.1259246647324765e+01 -6.1259245807762873e+01 -5.9131900198712003e+01 -5.9131900123200253e+01 -5.9131899837297553e+01 -6.1258994771052357e+01 -6.1258994761482676e+01 -6.1258993830698870e+01 -5.9131804882132073e+01
 -5.9131804797615949e+01 -5.9131804521544304e+01 -6.1259243183651527e+01 -6.1259241463263393e+01 -5.9131899416953381e+01 -5.9131899199096786e+01 -6.1258991756646815e+01 -6.1258990513199613e+01 -5.9131804149493533e+01 -5.9131803964863273e+01
 -5.4832314634047620e+01 -5.4832314622390413e+01 -5.4832314591164334e+01 -5.4832295693199647e+01 -5.4832295681292230e+01 -5.4832295649883548e+01 -5.4832314555654726e+01 -5.4832314539559782e+01 -5.4832295614526409e+01 -5.4832295598438115e+01
 -5.0473187026332631e+01 -5.0473187024914019e+01 -5.0473187021371736e+01 -5.0473208769212903e+01 -5.0473208767732906e+01 -5.0473208764024669e+01 -5.0473187017639823e+01 -5.0473187016031446e+01 -5.0473208760091161e+01 -5.0473208758379734e+01
 -4.6054611668417238e+01 -4.6054611668132708e+01 -4.6054611667422712e+01 -4.6054690695563494e+01 -4.6054690695162606e+01 -4.6054690694147403e+01 -4.6054611666654026e+01 -4.6054611666308759e+01 -4.6054690693027474e+01 -4.6054690692512580e+01
 -5.0473219549111100e+01 -5.0473219547350816e+01 -5.0473219542852050e+01 -5.0473222566500127e+01 -5.0473222564236487e+01 -5.0473222558212612e+01 -5.0473219537889051e+01 -5.0473219535610411e+01 -5.0473222551044920e+01 -5.0473222547410970e+01
 -4.6054742682309438e+01 -4.6054742681555197e+01 -4.6054742679548639e+01 -4.6054760775734721e+01 -4.6054760774421801e+01 -4.6054760770697975e+01 -4.6054742677148390e+01 -4.6054742675929667e+01 -4.6054760765749329e+01 -4.6054760762906170e+01
 -4.1576687437973519e+01 -4.1576687437823622e+01 -4.1576687437434607e+01 -4.1576867819596387e+01 -4.1576867819325557e+01 -4.1576867818619291e+01 -4.1576687436980293e+01 -4.1576687436759059e+01 -4.1576867817799105e+01 -4.1576867817399787e+01
 -3.7039478831663942e+01 -3.7039478831874533e+01 -3.7039478832349211e+01 -3.7039870928965868e+01 -3.7039870929049869e+01 -3.7039870929192951e+01 -3.7039478832747207e+01 -3.7039478832870692e+01 -3.7039870929208668e+01 -3.7039870929144989e+01
 -4.1576988442779815e+01 -4.1576988442146288e+01 -4.1576988440415143e+01 -4.1577030816545523e+01 -4.1577030815329906e+01 -4.1577030811778002e+01 -4.1576988438247739e+01 -4.1576988437085248e+01 -4.1577030806807350e+01 -4.1577030803761069e+01
 -3.7040134170399384e+01 -3.7040134170111969e+01 -3.7040134169198936e+01 -3.7040226847632560e+01 -3.7040226846742215e+01 -3.7040226843908229e+01 -3.7040134167801838e+01 -3.7040134166911308e+01 -3.7040226839434091e+01 -3.7040226836350080e+01
 -3.2439612786865304e+01 -3.2439802134497199e+01 -3.2439612791159142e+01 -3.2439802138790135e+01 -3.2439612801482333e+01 -3.2439802149115017e+01 -3.2440343909132103e+01 -3.2440343913426418e+01 -3.2440343923756011e+01 -3.2439612811714760e+01
 -3.2439802159352205e+01 -3.2439612815900830e+01 -3.2439802163541920e+01 -3.2440343933999280e+01 -3.2440343938192186e+01 -2.7780465487730240e+01 -2.7780859579914608e+01 -2.7780465537486339e+01 -2.7780859629694834e+01 -2.7780465657577544e+01
 -2.7780859749847181e+01 -2.7781991836986837e+01 -2.7781991886819856e+01 -2.7781992007100836e+01 -2.7780465777590067e+01 -2.7780859869923077e+01 -2.7780465827244882e+01 -2.7780859919605373e+01 -2.7781992127306616e+01 -2.7781992177043314e+01
 -3.2441161935002604e+01 -3.2441161939292058e+01 -3.2441161949610390e+01 -3.2442138276368333e+01 -3.2442138280630530e+01 -3.2442138290883264e+01 -3.2441161959843264e+01 -3.2441161964032311e+01 -3.2442138301051322e+01 -3.2442138305214002e+01
 -2.7783714778794845e+01 -2.7783714828634299e+01 -2.7783714948931323e+01 -2.7785792908023900e+01 -2.7785792957683608e+01 -2.7785793077546902e+01 -2.7783715069154137e+01 -2.7783715118898414e+01 -2.7785793197336968e+01 -2.7785793246902614e+01
 -2.3058750565693316e+01 -2.3059549480006464e+01 -2.3058751127972268e+01 -2.3059550042675202e+01 -2.3058752485992237e+01 -2.3059551401639055e+01 -2.3061862138589817e+01 -2.3061862702158663e+01 -2.3061864063297996e+01 -2.3058753844769896e+01
 -2.3059552761363090e+01 -2.3058754407777155e+01 -2.3059553324763510e+01 -2.3061865425200601e+01 -2.3061865989504522e+01 -1.8271212967056950e+01 -1.8272753028866369e+01 -1.8271219300154804e+01 -1.8272759367463923e+01 -1.8271234610185882e+01
 -1.8272774690806390e+01 -1.8277272284181883e+01 -1.8277278636055446e+01 -1.8277293991504113e+01 -1.8271249949839870e+01 -1.8272790043814222e+01 -1.8271256312544210e+01 -1.8272796412061425e+01 -1.8277309376692060e+01 -1.8277315758289440e+01
 -2.3065431985484260e+01 -2.3065432549684800e+01 -2.3065433912351267e+01 -2.3069823022380614e+01 -2.3069823585380199e+01 -2.3069824945148500e+01 -2.3065435275784292e+01 -2.3065435840723364e+01 -2.3069826305685904e+01 -2.3069826869426759e+01
 -1.8284433009327060e+01 -1.8284439374604538e+01 -1.8284454762471753e+01 -1.8293567145327611e+01 -1.8293573507903464e+01 -1.8293588889306381e+01 -1.8284470180161303e+01 -1.8284476575245808e+01 -1.8293604300615844e+01 -1.8293610693083124e+01
 -1.3411738770472065e+01 -1.3414423524648258e+01 -1.3411809858856653e+01 -1.3414494687578207e+01 -1.3411982173122983e+01 -1.3414667183163941e+01 -1.3422499846800404e+01 -1.3422571189538195e+01 -1.3422744121197056e+01 -1.3412155497409858e+01
 -1.3414840690400803e+01 -1.3412227597239928e+01 -1.3414912866407184e+01 -1.3422918067078511e+01 -1.3422990425462601e+01 -1.0951519421408035e+01 -1.0952415401153869e+01 -1.0951864405772199e+01 -1.0954729357304092e+01 -1.0955074789993368e+01
 -1.0952758111922376e+01 -1.0952706315700327e+01 -1.0955917810180129e+01 -1.0953594375063652e+01 -8.4665189699124603e+00 -8.4679282117353960e+00 -8.4673829813422845e+00 -8.4687927391606568e+00 -8.4699951935798516e+00 -8.4714066823425931e+00
 -8.4714186786529595e+00 -8.4722845976250998e+00 -8.4749029771632767e+00 -1.0958899099799908e+01 -1.0964604244604296e+01 -1.0964950662859460e+01 -1.0959242585725887e+01 -1.0965796090765393e+01 -1.0960080753896285e+01 -8.4744935480780939e+00
 -8.4759069816190351e+00 -8.4810365220475248e+00 -8.4824523190623822e+00 -8.4794081475759864e+00 -8.4859593162951352e+00 -1.0953561704537060e+01 -1.0956774339519219e+01 -1.0954443872459674e+01 -1.0953920205148000e+01 -1.0957133318708719e+01
 -1.0954799853771759e+01 -8.4750447335643742e+00 -8.4759121736407579e+00 -8.4785352482356888e+00 -8.4765902434231180e+00 -8.4774583296694583e+00 -8.4800833936917819e+00 -1.0966655062981410e+01 -1.0960932194944293e+01 -1.0967015062838838e+01
 -1.0961288989996053e+01 -8.4830454820723382e+00 -8.4896026416651651e+00 -8.4845957638917504e+00 -8.4911554461401071e+00 -1.3435923257389179e+01 -1.3435994815930892e+01 -1.3436168270585203e+01 -1.3454238465299373e+01 -1.3454310138506695e+01
 -1.3454483872653173e+01 -1.3436342742279836e+01 -1.3436415319284039e+01 -1.3454658627694313e+01 -1.3454731323214522e+01 -1.0972321235626097e+01 -1.0981746805451676e+01 -1.0982094472601046e+01 -1.0972665837273667e+01 -1.0982942940037955e+01
 -1.0973506722087569e+01 -8.4898857637751100e+00 -8.4913038986032916e+00 -8.5013173279643421e+00 -8.5027384337100713e+00 -8.4948166345173988e+00 -8.5062584701212050e+00 -1.0993326950010918e+01 -1.1006695629464428e+01 -1.1007044578694755e+01
 -1.0993672884190527e+01 -1.1007896183115507e+01 -1.0994517016560556e+01 -8.5156967324663508e+00 -8.5171210911500044e+00 -8.5333634299240586e+00 -8.5347916388123366e+00 -8.5206491457193572e+00 -8.5383292436087750e+00 -1.0983804986506225e+01
 -1.0974360910805578e+01 -1.0984166269941092e+01 -1.0974718852563241e+01 -8.4984658309201873e+00 -8.5099151555012966e+00 -8.5000211052107417e+00 -8.5114735888909987e+00 -1.1008761427705711e+01 -1.0995374497177325e+01 -1.1009124054291393e+01
 -1.0995733815765957e+01 -8.5243140945153577e+00 -8.5420041239267785e+00 -8.5258760256429191e+00 -8.5435702859503238e+00 -5.9484790934112972e+00 -5.9492262966378631e+00 -5.9538974990437561e+00 -5.9546479017730940e+00 -5.9515711517752976e+00
 -5.9570005272493987e+00 -5.9678079395207426e+00 -5.9685687092323834e+00 -5.9709436773407951e+00 -3.3661181812741008e+00 -3.3660435703966174e+00 -3.3707940928233504e+00 -3.3662051158374000e+00 -3.3845844460289038e+00 -3.3707232521333612e+00
 -3.3847463785097611e+00 -3.3708812817081912e+00 -3.3846531669954532e+00 -3.3666340142494682e+00 -3.3713107017262178e+00 -3.3672794505022869e+00 -3.3858483224973406e+00 -3.3719610657174934e+00 -3.3851836477957504e+00 -3.4073801656755482e+00
 -3.4374513053262410e+00 -3.4073111202853150e+00 -3.4376981208288426e+00 -3.4075025904260334e+00 -3.4375225172834525e+00 -3.4079583488926333e+00 -3.4389349756186078e+00 -3.4086577420314930e+00 -3.4381814660131358e+00 -5.9557486510606346e+00
 -5.9611868962009646e+00 -5.9620639533957061e+00 -5.9675108071664029e+00 -5.9751534754236060e+00 -5.9814992329608438e+00 -3.3684178178803603e+00 -3.3731023171234629e+00 -3.3698714738958229e+00 -3.3884732330186429e+00 -3.3745613752983945e+00
 -3.3870006169612865e+00 -3.3718958331757949e+00 -3.3765882474331166e+00 -3.3743080553031559e+00 -3.3929376098748931e+00 -3.3790054485451591e+00 -3.3905089213901229e+00 -3.4098255999753144e+00 -3.4416628807683356e+00 -3.4113267665655354e+00
 -3.4401199780291254e+00 -3.4133719439353478e+00 -3.4462033417354685e+00 -3.4158250209509076e+00 -3.4437150250887032e+00 -5.9830570254975424e+00 -5.9838302198738713e+00 -5.9862306258194993e+00 -5.9898262762373555e+00 -5.9906047482222222e+00
 -5.9930160133340786e+00 -3.4720430071102495e+00 -3.5052334576535640e+00 -3.4719743936560548e+00 -3.5056121849138107e+00 -3.4722939728885898e+00 -3.5052874207350522e+00 -3.4728024161230220e+00 -3.5070297695912056e+00 -3.4736279953929672e+00
 -3.5061313383873061e+00 -3.5298824563222384e+00 -3.5391127693548374e+00 -3.5298458410569613e+00 -3.5395409598390577e+00 -3.5302620261790625e+00 -3.5391393462446410e+00 -3.5307808919135306e+00 -3.5410312886004678e+00 -3.5317345342318234e+00
 -3.5400552318021998e+00 -5.9904658800999275e+00 -5.9968347886419116e+00 -5.9972621497145981e+00 -6.0036409636572019e+00 -3.4748225958977823e+00 -3.5098810032796224e+00 -3.4764216942108361e+00 -3.5082225974779173e+00 -3.4784713175590074e+00
 -3.5145087755565796e+00 -3.4810086709504491e+00 -3.5119183667385068e+00 -3.5329198405011688e+00 -3.5439351224543851e+00 -3.5346251703970255e+00 -3.5422099551113049e+00 -3.5366484646363432e+00 -3.5486017076404592e+00 -3.5392820242953138e+00
 -3.5459496438952685e+00 -2.0117109909178583e+00 -2.0182606694349099e+00 -2.0122042649978122e+00 -2.0188477838985435e+00 -2.0109587193071254e+00 -2.0174375468189329e+00 -2.0403403534096101e+00 -2.0396943447128226e+00 -2.0388145471243928e+00
 -6.0544964391234557e-01 -6.0222900538276392e-01 -6.0855967177987880e-01 -6.0342193441258141e-01 -5.9908639336448410e-01 -5.9943412038416566e-01 -6.2677316166921770e-01 -6.2084183944657967e-01 -6.1617180107325198e-01 -2.0104769357257584e+00
 -2.0169278349832300e+00 -2.0104265979697127e+00 -2.0168720691780089e+00 -2.0382896076949559e+00 -2.0382434926116266e+00 -5.9727352262735167e-01 -5.9737233304587345e-01 -5.9646624490140321e-01 -5.9650367969881168e-01 -6.1386645807781781e-01
 -6.1294093101301117e-01 -2.0789068903138963e+00 -2.0795273757999744e+00 -2.0780860786148834e+00 -2.1395509936018158e+00 -2.1390610940329049e+00 -2.1384444153425841e+00 -6.6964777643806062e-01 -6.6375493018495357e-01 -6.5916407984802738e-01
 -7.5494333576085138e-01 -7.5004075134158021e-01 -7.4642226618090624e-01 -2.0776264941090270e+00 -2.0776382563370266e+00 -2.1381503151794883e+00 -2.1382769193240128e+00 -6.5694815655337491e-01 -6.5609328632111141e-01 -7.4471526584289294e-01
 -7.4409673919837294e-01 -2.5336335287013906e-01 -2.4778268203464088e-01 -2.5243425256348656e-01 -2.3835757974917748e-01 9.4075142422065938e-02 1.0108684368620703e-01 9.8595235581744128e-02 1.3095422301084078e-01 3.7034425271605054e-01
 3.7068188116351175e-01 3.7062691338907394e-01 3.8788219428494264e-01 4.2333369376619845e-01 4.2335128176743958e-01 4.2335115857902927e-01 4.3840520875128797e-01 -2.4431666569333116e-01 -2.3299166722404718e-01 1.0385618074363155e-01
 1.3648455030271700e-01 3.7074443646316624e-01 3.8798702352337594e-01 4.2335143667696384e-01 4.3840986469981763e-01 -2.6484641424361449e-01 -2.4891306074079603e-01 9.2779838387525113e-02 1.2789916535205831e-01 3.7050071726148381e-01