DF-ISE text

Info {
  version = 1.0
  type    = dataset
  dimension   = 3
  nb_vertices = 5293
  nb_edges    = 23303
  nb_faces    = 30690
  nb_elements = 12980
  nb_regions  = 3
  datasets    = [ "ElectrostaticPotential" "ContactExternalVoltage" "ContactCurrentFlux" "ContactCharge" "eQuasiFermiPotential" "hQuasiFermiPotential" "QuasiFermiPotential" "LatticeTemperature" ]
  functions   = [ ElectrostaticPotential ContactExternalVoltage ContactCurrentFlux ContactCharge eQuasiFermiPotential hQuasiFermiPotential QuasiFermiPotential LatticeTemperature ]
}

Data {

  Dataset ("ElectrostaticPotential") {
    function  = ElectrostaticPotential
    type      = scalar
    dimension = 1
    location  = vertex
    validity  = [ "substrate" ]
    Values (5293) {
 -5.0378889853107928e+01 -5.0370671534305686e+01 -5.0378889853107928e+01 -5.0378889853107928e+01 -5.0370672082150257e+01 -5.0370671671258009e+01 -5.0394599031962663e+01 -5.0386381561936666e+01 -5.0355505124779675e+01 -5.0355506196268131e+01
 -5.0355505392620820e+01 -5.0371218562427458e+01 -5.0323354534104176e+01 -5.0323359259356330e+01 -5.0323355696429168e+01 -5.0339082537505647e+01 -5.0273820061746136e+01 -5.0273963411179395e+01 -5.0273847546119477e+01 -5.0290328444866091e+01
 -5.0161657309703017e+01 -5.0167086751000141e+01 -5.0162579206876735e+01 -5.0199077788297387e+01 -4.9991355484531468e+01 -5.0000604307150539e+01 -4.9992695677650332e+01 -5.0020604586014016e+01 -4.9818774565644908e+01 -4.9829922090542311e+01
 -4.9820177906527846e+01 -4.9840219890372680e+01 -5.0378889853107928e+01 -5.0370671671264347e+01 -5.0394599031962663e+01 -5.0386381698880513e+01 -5.0355505392641689e+01 -5.0371218830014719e+01 -5.0323355704519649e+01 -5.0339083661413575e+01
 -5.0273851050609665e+01 -5.0290347694339438e+01 -5.0162759991715276e+01 -5.0200089289082470e+01 -4.9993074017884204e+01 -5.0022730506776881e+01 -4.9820693091634638e+01 -4.9842659518265044e+01 -4.8410290926016792e+01 -4.8414123695143886e+01
 -4.8410507369089366e+01 -4.8414925974204685e+01 -4.8410615195751546e+01 -4.8415270556631846e+01 -5.0378889853107928e+01 -5.0370672082162756e+01 -5.0394599031962663e+01 -5.0386381596181657e+01 -5.0355506196306969e+01 -5.0371218629339317e+01
 -5.0323359288136949e+01 -5.0339082822695012e+01 -5.0273976151512400e+01 -5.0290336910761908e+01 -5.0167751468969513e+01 -5.0199713177486544e+01 -5.0002162266215947e+01 -5.0022502168373272e+01 -4.9832230859098885e+01 -4.9843014397140557e+01
 -5.0394599031962663e+01 -5.0386381733126235e+01 -5.0371218896928418e+01 -5.0339083946777933e+01 -5.0290356295174981e+01 -5.0200739729141141e+01 -5.0024734837327308e+01 -4.9845629404367777e+01 -4.8416322298077283e+01 -4.8417202328569296e+01
 -4.8417586285029927e+01 -5.0378889853107928e+01 -5.0370671671256929e+01 -5.0394599031962663e+01 -5.0386381547010572e+01 -5.0355505392617459e+01 -5.0371218533259722e+01 -5.0323355694324512e+01 -5.0339082414475129e+01 -5.0273846618517624e+01
 -5.0290325929834133e+01 -5.0162531151519332e+01 -5.0198926541224857e+01 -4.9992589652075679e+01 -5.0020229245093603e+01 -4.9820025643776738e+01 -4.9839726348430624e+01 -5.0378889853107928e+01 -5.0370671519378504e+01 -5.0377177747777047e+01
 -5.0368959932127183e+01 -5.0355505095582558e+01 -5.0353793595247019e+01 -5.0323354404953335e+01 -5.0321644801596754e+01 -5.0273815998073410e+01 -5.0272135274750724e+01 -5.0161502955453720e+01 -5.0163513046125487e+01 -4.9991089925628643e+01
 -4.9998095503755025e+01 -4.9818447895900867e+01 -4.9828295334478078e+01 -4.8410418883818416e+01 -4.8414761750839439e+01 -4.8410152956287469e+01 -4.8413834390910438e+01 -5.0394599031962663e+01 -5.0386381581255343e+01 -5.0371218600171105e+01
 -5.0339082699587998e+01 -5.0290334332130335e+01 -5.0199555161859074e+01 -5.0022095739381449e+01 -4.9842470531654065e+01 -5.0377177747777047e+01 -5.0368959924091470e+01 -5.0353793579547087e+01 -5.0321644766985202e+01 -5.0272147625557494e+01
 -5.0164137775026035e+01 -4.9999561777278338e+01 -4.9830485331218746e+01 -4.8417012965893065e+01 -4.8415992193919010e+01 -4.6977557107842209e+01 -4.6978688137718073e+01 -4.6977580991572836e+01 -4.6978751999972026e+01 -4.6977590037604443e+01
 -4.6978781685635475e+01 -4.5527517053804189e+01 -4.5527878479755422e+01 -4.5527518842028449e+01 -4.5527882997041196e+01 -4.5527517780186166e+01 -4.5527883311058162e+01 -4.6979829263934917e+01 -4.6979901637653960e+01 -4.6979935506195268e+01
 -4.5528404121908189e+01 -4.5528409379719847e+01 -4.5528409817587296e+01 -4.6977551758090463e+01 -4.6978709927783768e+01 -4.6977514633431817e+01 -4.6978625105739809e+01 -4.5527510568949445e+01 -4.5527872642282261e+01 -4.5527505264463997e+01
 -4.5527863615659015e+01 -4.6979852712333631e+01 -4.6979756102466453e+01 -4.5528397440718841e+01 -4.5528386984769256e+01 -5.0378889853107928e+01 -5.0370672082163978e+01 -5.0394599031962663e+01 -5.0386381596182979e+01 -5.0355506196311175e+01
 -5.0371218629341193e+01 -5.0323359293395995e+01 -5.0339082823513252e+01 -5.0273978499164237e+01 -5.0290337634233438e+01 -5.0167874314310367e+01 -5.0199789311036177e+01 -5.0002461666643875e+01 -5.0022787945292194e+01 -4.9832692849455334e+01
 -4.9843487545541365e+01 -5.0394599031962663e+01 -5.0386381733127578e+01 -5.0371218896930309e+01 -5.0339083947578892e+01 -5.0290357003524498e+01 -5.0200814426109709e+01 -5.0025024013303636e+01 -4.9846110943458854e+01 -4.8417212034372874e+01
 -4.8418098505971535e+01 -4.8418485680508695e+01 -5.0378889853107928e+01 -5.0370672082164106e+01 -5.0394599031962663e+01 -5.0386381596183107e+01 -5.0355506196311801e+01 -5.0371218629341378e+01 -5.0323359294271178e+01 -5.0339082823640986e+01
 -5.0273978889899517e+01 -5.0290337747919743e+01 -5.0167894768388770e+01 -5.0199801285928658e+01 -5.0002511949602301e+01 -5.0022833548205426e+01 -4.9832771567772561e+01 -4.9843564507794689e+01 -5.0394599031962663e+01 -5.0386381733127706e+01
 -5.0371218896930493e+01 -5.0339083947701205e+01 -5.0290357112421276e+01 -5.0200825921609450e+01 -5.0025069199556718e+01 -4.9846187707769396e+01 -4.8417417719169080e+01 -4.8418304485231317e+01 -4.8418691693688586e+01 -5.0394599031962663e+01
 -5.0386381581256636e+01 -5.0371218600172959e+01 -5.0339082700400802e+01 -5.0290335050713331e+01 -5.0199630757818099e+01 -5.0022378362097157e+01 -4.9842938184957575e+01 -5.0377177747777047e+01 -5.0368959924092621e+01 -5.0353793579551891e+01
 -5.0321644773173560e+01 -5.0272150188908036e+01 -5.0164261946604732e+01 -4.9999856618739777e+01 -4.9830937983082656e+01 -4.8417903586032821e+01 -4.8416873681413144e+01 -5.0394599031962663e+01 -5.0386381581256764e+01 -5.0371218600173144e+01
 -5.0339082700528373e+01 -5.0290335164245327e+01 -5.0199642712497507e+01 -5.0022423699833062e+01 -4.9843014647220578e+01 -5.0377177747777047e+01 -5.0368959924092749e+01 -5.0353793579552637e+01 -5.0321644774219337e+01 -5.0272150621966141e+01
 -5.0164282930024491e+01 -4.9999906801961615e+01 -4.9831016062508738e+01 -4.8418108665119604e+01 -4.8417078075396418e+01 -4.6980470402157941e+01 -4.6980543757337735e+01 -4.6980577781081109e+01 -4.5528764885779196e+01 -4.5528770217436382e+01
 -4.5528770523428207e+01 -4.6980635477007752e+01 -4.6980708888334341e+01 -4.6980742829857348e+01 -4.5528860010938132e+01 -4.5528865337921040e+01 -4.5528865592669945e+01 -4.6980492674649909e+01 -4.6980394142395006e+01 -4.5528757634825809e+01
 -4.5528746833866592e+01 -4.6980657364413069e+01 -4.6980558589708217e+01 -4.5528852600568264e+01 -4.5528841739748025e+01 -4.4061886721798764e+01 -4.4062015347133325e+01 -4.4061886662691876e+01 -4.4062015459704227e+01 -4.4061885939209944e+01
 -4.4062014772850745e+01 -4.2581146477911211e+01 -4.2581193476923140e+01 -4.2581146412999715e+01 -4.2581193416406407e+01 -4.2581146210422212e+01 -4.2581193203826871e+01 -4.4062248675521531e+01 -4.4062248826742135e+01 -4.4062248069502637e+01
 -4.2581291654599234e+01 -4.2581291590108258e+01 -4.2581291356304369e+01 -4.4061884487565351e+01 -4.4062012944710276e+01 -4.4061883639054841e+01 -4.4062011776596101e+01 -4.2581145947023721e+01 -4.2581192905321096e+01 -4.2581145818577482e+01
 -4.2581192753519396e+01 -4.4062245971432908e+01 -4.4062244621427169e+01 -4.2581291021449836e+01 -4.2581290849665713e+01 -3.9574826103474678e+01 -3.9574838202759281e+01 -3.9574826095407168e+01 -3.9574838194453335e+01 -3.9574826074487504e+01
 -3.9574838172507206e+01 -3.9574866615351951e+01 -3.9574866606417558e+01 -3.9574866582632353e+01 -3.9574826051585184e+01 -3.9574838147987663e+01 -3.9574826041489189e+01 -3.9574838137031144e+01 -3.9574866555838113e+01 -3.9574866543804163e+01
 -4.4062429234732825e+01 -4.4062429377672125e+01 -4.4062428561667204e+01 -4.2581374197307092e+01 -4.2581374128156483e+01 -4.2581373879718875e+01 -4.4062474902885292e+01 -4.4062475040549934e+01 -4.4062474205813274e+01 -4.2581393819998084e+01
 -4.2581393749150685e+01 -4.2581393496006946e+01 -4.4062426354488757e+01 -4.4062424942836785e+01 -4.2581373525668127e+01 -4.2581373344508435e+01 -4.4062471971832188e+01 -4.4062470546549093e+01 -4.2581393136412188e+01 -4.2581392952700568e+01
 -3.9574895092099453e+01 -3.9574895082661818e+01 -3.9574895057549895e+01 -3.9574909195280917e+01 -3.9574909185657908e+01 -3.9574909160075393e+01 -3.9574895029274835e+01 -3.9574895016580768e+01 -3.9574909131297616e+01 -3.9574909118385698e+01
 -3.6508996502530607e+01 -3.6509005251178252e+01 -3.6508996501611918e+01 -3.6509005250229713e+01 -3.6508996499329086e+01 -3.6509005247869759e+01 -3.6509028915502618e+01 -3.6509028914498366e+01 -3.6509028911996452e+01 -3.6508996496945954e+01
 -3.6509005245399649e+01 -3.6508996495924443e+01 -3.6509005244340131e+01 -3.6509028909373491e+01 -3.6509028908247586e+01 -3.3383684147134787e+01 -3.3383699872977992e+01 -3.3383684146926591e+01 -3.3383699872765348e+01 -3.3383684146396554e+01
 -3.3383699872228192e+01 -3.3383744399470025e+01 -3.3383744399252102e+01 -3.3383744398703136e+01 -3.3383684145816027e+01 -3.3383699871643572e+01 -3.3383684145553964e+01 -3.3383699871381452e+01 -3.3383744398107602e+01 -3.3383744397841404e+01
 -3.6509061093366036e+01 -3.6509061092316003e+01 -3.6509061089700310e+01 -3.6509094268259396e+01 -3.6509094267183436e+01 -3.6509094264504206e+01 -3.6509061086959022e+01 -3.6509061085782811e+01 -3.6509094261698060e+01 -3.6509094260494614e+01
 -3.3383810346039390e+01 -3.3383810345815711e+01 -3.3383810345253089e+01 -3.3383887088768894e+01 -3.3383887088533740e+01 -3.3383887087943272e+01 -3.3383810344644175e+01 -3.3383810344372598e+01 -3.3383887087306377e+01 -3.3383887087023218e+01
 -3.0198833095424526e+01 -3.0198866403138911e+01 -3.0198833095304419e+01 -3.0198866403016819e+01 -3.0198833094982753e+01 -3.0198866402693106e+01 -3.0198961314366073e+01 -3.0198961314242688e+01 -3.0198961313916808e+01 -3.0198833094601412e+01
 -3.0198866402312284e+01 -3.0198833094416209e+01 -3.0198866402128537e+01 -3.0198961313534863e+01 -3.0198961313351102e+01 -2.6954302590587307e+01 -2.6954373528258856e+01 -2.6954302590755283e+01 -2.6954373528425471e+01 -2.6954302591123128e+01
 -2.6954373528791937e+01 -2.6954576038473281e+01 -2.6954576038639036e+01 -2.6954576039004177e+01 -2.6954302591418575e+01 -2.6954373529087938e+01 -2.6954302591505982e+01 -2.6954373529176468e+01 -2.6954576039299759e+01 -2.6954576039388513e+01
 -3.0199103525583581e+01 -3.0199103525457673e+01 -3.0199103525126002e+01 -3.0199271538891594e+01 -3.0199271538755408e+01 -3.0199271538398882e+01 -3.0199103524738749e+01 -3.0199103524553021e+01 -3.0199271537986746e+01 -3.0199271537790789e+01
 -2.6954880506110520e+01 -2.6954880506273625e+01 -2.6954880506632687e+01 -2.6955241829908342e+01 -2.6955241830059901e+01 -2.6955241830391074e+01 -2.6954880506922724e+01 -2.6954880507009431e+01 -2.6955241830653328e+01 -2.6955241830728696e+01
 -5.0378889853107928e+01 -5.0370672082163949e+01 -5.0394599031962663e+01 -5.0386381596182950e+01 -5.0355506196310955e+01 -5.0371218629341151e+01 -5.0323359293036397e+01 -5.0339082823461659e+01 -5.0273978338598099e+01 -5.0290337588283840e+01
 -5.0167865906757250e+01 -5.0199784470244765e+01 -5.0002440870144390e+01 -5.0022769420518806e+01 -4.9832659899334622e+01 -4.9843455903819098e+01 -5.0394599031962663e+01 -5.0386381733127557e+01 -5.0371218896930273e+01 -5.0339083947530007e+01
 -5.0290356959969976e+01 -5.0200809827454080e+01 -5.0025005844417336e+01 -4.9846079688590407e+01 -4.8417104573233324e+01 -4.8417991173844001e+01 -4.8418378409950378e+01 -5.0378889853107928e+01 -5.0370672082162507e+01 -5.0394599031962663e+01
 -5.0386381596181458e+01 -5.0355506196305882e+01 -5.0371218629339019e+01 -5.0323359286809811e+01 -5.0339082822506242e+01 -5.0273975559993232e+01 -5.0290336743239529e+01 -5.0167720530020908e+01 -5.0199695541302226e+01 -5.0002086972109282e+01
 -5.0022435558473795e+01 -4.9832114045598111e+01 -4.9842902719911088e+01 -5.0394599031962663e+01 -5.0386381733126029e+01 -5.0371218896928120e+01 -5.0339083946599395e+01 -5.0290356136695550e+01 -5.0200723007948774e+01 -5.0024669612770843e+01
 -4.9845519253689105e+01 -4.8416041394884651e+01 -4.8416921922790010e+01 -4.8417306118821401e+01 -5.0394599031962663e+01 -5.0386381581256614e+01 -5.0371218600172917e+01 -5.0339082700348776e+01 -5.0290335004383905e+01 -5.0199625878710513e+01
 -5.0022359771013079e+01 -4.9842906459650081e+01 -5.0377177747777047e+01 -5.0368959924092593e+01 -5.0353793579551606e+01 -5.0321644772737258e+01 -5.0272150008217274e+01 -5.0164253189086956e+01 -4.9999835551163933e+01 -4.9830904823411238e+01
 -4.8417796213399953e+01 -4.8416766156326496e+01 -5.0394599031962663e+01 -5.0386381581255129e+01 -5.0371218600170792e+01 -5.0339082699397608e+01 -5.0290334163186301e+01 -5.0199537382208007e+01 -5.0022028877407664e+01 -4.9842358536390954e+01
 -5.0377177747777047e+01 -5.0368959924091214e+01 -5.0353793579545751e+01 -5.0321644765373726e+01 -5.0272146959329270e+01 -5.0164105522786109e+01 -4.9999485448675415e+01 -4.9830367711125326e+01 -4.8416732427173748e+01 -4.8415711076885216e+01
 -4.6980353379113275e+01 -4.6980426746421074e+01 -4.6980460774887803e+01 -4.5528669042151769e+01 -4.5528674374601039e+01 -4.5528674679958357e+01 -4.6979564379777678e+01 -4.6979636798869898e+01 -4.6979670688008177e+01 -4.5528204688414860e+01
 -4.5528209949419725e+01 -4.5528210386425492e+01 -4.6980375650131336e+01 -4.6980277099632147e+01 -4.5528661787831204e+01 -4.5528650984322198e+01 -4.6979587834002594e+01 -4.6979491160569069e+01 -4.5528197999224211e+01 -4.5528187535316569e+01
 -5.0378889853107928e+01 -5.0370672074685324e+01 -5.0394599031962663e+01 -5.0386381558203723e+01 -5.0355506181664673e+01 -5.0371218555133019e+01 -5.0323359190343275e+01 -5.0339082505984919e+01 -5.0273959409795005e+01 -5.0290327155172463e+01
 -5.0166906336314256e+01 -5.0198970956803556e+01 -5.0000221883331086e+01 -5.0020265764721245e+01 -4.9829381337338965e+01 -4.9839701315266581e+01 -5.0394599031962663e+01 -5.0386381695147676e+01 -5.0371218822720557e+01 -5.0339083629951006e+01
 -5.0290346452707894e+01 -5.0199987252111555e+01 -5.0022397806301527e+01 -4.9842146921528666e+01 -4.8413485263206660e+01 -4.8414289232133484e+01 -4.8414634581628583e+01 -5.0377177747777061e+01 -5.0368959284941710e+01 -5.0377177747777061e+01
 -5.0368959432642278e+01 -5.0353792329251860e+01 -5.0353792618156326e+01 -5.0321639171117134e+01 -5.0321640431555338e+01 -5.0271957825930180e+01 -5.0271988277019496e+01 -5.0157201118630340e+01 -5.0158157699118981e+01 -4.9987513614783730e+01
 -4.9988876004369921e+01 -4.9815553457872170e+01 -4.9816969555153165e+01 -5.0377177747777061e+01 -5.0368959432649312e+01 -5.0353792618180627e+01 -5.0321640441413081e+01 -5.0271992245384901e+01 -5.0158346902281536e+01 -4.9989261095785295e+01
 -4.9817489843208271e+01 -4.8409007879110568e+01 -4.8409225486160025e+01 -4.8409333910243355e+01 -5.0394599031962663e+01 -5.0386381543277615e+01 -5.0371218525965240e+01 -5.0339082382945854e+01 -5.0290324633102607e+01 -5.0198819011934248e+01
 -5.0019889422169648e+01 -4.9839206642765632e+01 -5.0377177747777047e+01 -5.0368959924076506e+01 -5.0353793579494621e+01 -5.0321644726073160e+01 -5.0272130812566843e+01 -5.0163325875636559e+01 -4.9997708401189762e+01 -4.9827751471429885e+01
 -4.8414124668176854e+01 -4.8413195386461304e+01 -5.0377177747777061e+01 -5.0368959432641084e+01 -5.0353792618152333e+01 -5.0321640428983422e+01 -5.0271987224780055e+01 -5.0158107316367889e+01 -4.9988767933168518e+01 -4.9816815534172981e+01
 -5.0377177747777061e+01 -5.0368959268842978e+01 -5.0353792297758211e+01 -5.0321639030738410e+01 -5.0271953298477179e+01 -5.0157040481432404e+01 -4.9987243383681943e+01 -4.9815223402967895e+01 -4.8409136558273936e+01 -4.8408869221973021e+01
 -4.6978225599106054e+01 -4.6978289592393445e+01 -4.6978319341402930e+01 -4.5527574116008836e+01 -4.5527578642006645e+01 -4.5527578956047250e+01 -4.6976913589573911e+01 -4.6976937573437965e+01 -4.6976946662524917e+01 -4.5527150313168619e+01
 -4.5527152107640390e+01 -4.5527151042226265e+01 -4.6978247435557414e+01 -4.6978162441899997e+01 -4.5527568265226549e+01 -4.5527559220411867e+01 -4.6976908233694118e+01 -4.6976870960718713e+01 -4.5527143806129970e+01 -4.5527138483284432e+01
 -4.4062362310685408e+01 -4.4062362453535421e+01 -4.4062361637042329e+01 -4.2581335012493938e+01 -4.2581334943257367e+01 -4.2581334694587873e+01 -4.4062116008732140e+01 -4.4062116159789198e+01 -4.4062115401292438e+01 -4.2581216154935731e+01
 -4.2581216090178117e+01 -4.2581215855647017e+01 -4.4062359429032540e+01 -4.4062358016920385e+01 -4.2581334340271994e+01 -4.2581334158991744e+01 -4.4062113300894246e+01 -4.4062111949553753e+01 -4.2581215519947662e+01 -4.2581215347773281e+01
 -3.9574902778622693e+01 -3.9574902769128123e+01 -3.9574902743874915e+01 -3.9574880322770930e+01 -3.9574880313624739e+01 -3.9574880289303039e+01 -3.9574902715452545e+01 -3.9574902702695304e+01 -3.9574880261930005e+01 -3.9574880249639406e+01
 -4.4061826539618565e+01 -4.4061826651930730e+01 -4.4061825962524154e+01 -4.2581090041331628e+01 -4.2581089980145897e+01 -4.2581089765728485e+01 -4.4061671964190516e+01 -4.4061671904175327e+01 -4.4061671176523589e+01 -4.2581031819339849e+01
 -4.2581031753264106e+01 -4.2581031547506399e+01 -4.4061824129477088e+01 -4.4061822958484001e+01 -4.2581089465051257e+01 -4.2581089312224726e+01 -4.4061669718128620e+01 -4.4061668865907293e+01 -4.2581031280321518e+01 -4.2581031150058003e+01
 -3.9574855400479159e+01 -3.9574855391564554e+01 -3.9574855368033035e+01 -3.9574844359164672e+01 -3.9574844349985824e+01 -3.9574844326094372e+01 -3.9574855341722781e+01 -3.9574855329935346e+01 -3.9574844299688451e+01 -3.9574844287894955e+01
 -3.6509122316404351e+01 -3.6509122315301354e+01 -3.6509122312554517e+01 -3.6509141963062909e+01 -3.6509141961853238e+01 -3.6509141958829744e+01 -3.6509122309676727e+01 -3.6509122308441974e+01 -3.6509141955640544e+01 -3.6509141954261345e+01
 -3.3383962702107340e+01 -3.3383962701831493e+01 -3.3383962701139552e+01 -3.3384025904753955e+01 -3.3384025904330755e+01 -3.3384025903258390e+01 -3.3383962700395855e+01 -3.3383962700066384e+01 -3.3384025902090031e+01 -3.3384025901564961e+01
 -3.6509152846372594e+01 -3.6509152844810743e+01 -3.6509152840840017e+01 -3.6509156205320963e+01 -3.6509156203249013e+01 -3.6509156197838116e+01 -3.6509152836520840e+01 -3.6509152834585919e+01 -3.6509156191670655e+01 -3.6509156188758347e+01
 -3.3384067659553828e+01 -3.3384067658715139e+01 -3.3384067656517779e+01 -3.3384082226483564e+01 -3.3384082225070394e+01 -3.3384082221220027e+01 -3.3384067653992211e+01 -3.3384067652789888e+01 -3.3384082216505327e+01 -3.3384082214103245e+01
 -3.0199439844434963e+01 -3.0199439844257011e+01 -3.0199439843796341e+01 -3.0199582758698405e+01 -3.0199582758369008e+01 -3.0199582757515902e+01 -3.0199439843274561e+01 -3.0199439843031023e+01 -3.0199582756552566e+01 -3.0199582756103339e+01
 -2.6955605563503351e+01 -2.6955605563610266e+01 -2.6955605563830353e+01 -2.6955915850204647e+01 -2.6955915850155112e+01 -2.6955915849968818e+01 -2.6955605563975951e+01 -2.6955605564000816e+01 -2.6955915849654325e+01 -2.6955915849462553e+01
 -3.0199678368189566e+01 -3.0199678367428987e+01 -3.0199678365395290e+01 -3.0199711962186736e+01 -3.0199711960811150e+01 -3.0199711956970884e+01 -3.0199678362976144e+01 -3.0199678361779064e+01 -3.0199711952066533e+01 -3.0199711949441681e+01
 -2.6956124180180804e+01 -2.6956124179685673e+01 -2.6956124178265732e+01 -2.6956197527160207e+01 -2.6956197526011767e+01 -2.6956197522628873e+01 -2.6956124176394493e+01 -2.6956124175376324e+01 -2.6956197517940563e+01 -2.6956197515213290e+01
 -2.3649791487117113e+01 -2.3649941266322696e+01 -2.3649791490500242e+01 -2.3649941269706048e+01 -2.3649791498624023e+01 -2.3649941277831651e+01 -2.3650369836161474e+01 -2.3650369839546080e+01 -2.3650369847675297e+01 -2.3649791506661220e+01
 -2.3649941285872075e+01 -2.3649791509945814e+01 -2.3649941289158630e+01 -2.3650369855720118e+01 -2.3650369859008844e+01 -2.0284668855482170e+01 -2.0284980547632859e+01 -2.0284668895149913e+01 -2.0284980587322440e+01 -2.0284668990879769e+01
 -2.0284980683105793e+01 -2.0285876101940250e+01 -2.0285876141674251e+01 -2.0285876237565343e+01 -2.0284669086526332e+01 -2.0284980778806847e+01 -2.0284669126093615e+01 -2.0284980818397138e+01 -2.0285876333374880e+01 -2.0285876373010442e+01
 -2.3651016965447109e+01 -2.3651016968826742e+01 -2.3651016976944270e+01 -2.3651789385714970e+01 -2.3651789389068252e+01 -2.3651789397122219e+01 -2.3651016984977989e+01 -2.3651016988262423e+01 -2.3651789405092632e+01 -2.3651789408351124e+01
 -2.0287238966994938e+01 -2.0287239006729713e+01 -2.0287239102623051e+01 -2.0288882968768963e+01 -2.0288883008344808e+01 -2.0288883103854563e+01 -2.0287239198435540e+01 -2.0287239238072715e+01 -2.0288883199283898e+01 -2.0288883238762793e+01
 -1.6857638138749667e+01 -1.6858269832008464e+01 -1.6857638587473161e+01 -1.6858270281079204e+01 -1.6857639671225542e+01 -1.6858271365671172e+01 -1.6860098575154552e+01 -1.6860099024993460e+01 -1.6860100111441891e+01 -1.6857640755564862e+01
 -1.6858272450851953e+01 -1.6857641204851237e+01 -1.6858272900487510e+01 -1.6860101198481985e+01 -1.6860101648888637e+01 -1.3366126147950119e+01 -1.3367343177990328e+01 -1.3366131202111319e+01 -1.3367348237168931e+01 -1.3366143420601123e+01
 -1.3367360467809835e+01 -1.3370915069577350e+01 -1.3370920140291551e+01 -1.3370932398841273e+01 -1.3366155663071018e+01 -1.3367372722481623e+01 -1.3366160741198412e+01 -1.3367377805677235e+01 -1.3370944681503257e+01 -1.3370949776315973e+01
 -1.6862921872186977e+01 -1.6862922322497425e+01 -1.6862923410086019e+01 -1.6866395335412317e+01 -1.6866395784611100e+01 -1.6866396869516652e+01 -1.6862924498268992e+01 -1.6862924949150081e+01 -1.6866397955018027e+01 -1.6866398404789219e+01
 -1.3376576334434505e+01 -1.3376581415628335e+01 -1.3376593699528970e+01 -1.3383800542793345e+01 -1.3383805619932033e+01 -1.3383817894082192e+01 -1.3376606007613912e+01 -1.3376611112978550e+01 -1.3383830192473967e+01 -1.3383835293841216e+01
 -9.8053027262046832e+00 -9.8074217268514747e+00 -9.8053594499251187e+00 -9.8074785207490702e+00 -9.8054969536754015e+00 -9.8076161954923666e+00 -9.8137983510595852e+00 -9.8138553047275110e+00 -9.8139933673666153e+00 -9.8056352760947743e+00
 -9.8077546909043569e+00 -9.8056928197834221e+00 -9.8078123067749576e+00 -9.8141322535798778e+00 -9.8141900321298596e+00 -7.9962228665725874e+00 -7.9969398379359529e+00 -7.9964980478360079e+00 -7.9987520863189046e+00 -7.9990277065063529e+00
 -7.9972132299690957e+00 -7.9971697199051057e+00 -7.9997004700771139e+00 -7.9978804576130811e+00 -6.1643523880465034e+00 -6.1654758276415667e+00 -6.1650307739055918e+00 -6.1661547606216569e+00 -6.1670809382257987e+00 -6.1682066319007971e+00
 -6.1682595031699883e+00 -6.1689399175725947e+00 -6.1709961961970574e+00 -8.0020501217523705e+00 -8.0065384185847268e+00 -8.0068149421451391e+00 -8.0023242552997687e+00 -8.0074899183086590e+00 -8.0029933117724354e+00 -6.1706172887529975e+00
 -6.1717448882332935e+00 -6.1757653705379223e+00 -6.1768951138545578e+00 -6.1745392562684849e+00 -6.1796947904579511e+00 -7.9978523129603225e+00 -8.0003841921991672e+00 -7.9985584122058544e+00 -7.9981384492471177e+00 -8.0006708051907864e+00
 -7.9988425643428949e+00 -6.1711529873199229e+00 -6.1718350457132800e+00 -6.1738960518742312e+00 -6.1723868549528866e+00 -6.1730696253940200e+00 -6.1751326612696760e+00 -8.0081758940692485e+00 -8.0036731428339980e+00 -8.0084634515569366e+00
 -8.0039580842973201e+00 -6.1774441592077105e+00 -6.1826051773750308e+00 -6.1786829188356158e+00 -6.1838462565466861e+00 -9.8244029676993474e+00 -9.8244600931776063e+00 -9.8245985723316878e+00 -9.8388827662811398e+00 -9.8389399592030280e+00
 -9.8390786030743005e+00 -9.8247378775004073e+00 -9.8247958303024276e+00 -9.8392180757072243e+00 -9.8392760987002728e+00 -8.0126385977302075e+00 -8.0200687588660831e+00 -8.0203462876041094e+00 -8.0129136933690752e+00 -8.0210237113545109e+00
 -8.0135850956183141e+00 -6.1827365601613273e+00 -6.1838682776801557e+00 -6.1917486254384366e+00 -6.1928826632588088e+00 -6.1866728072247978e+00 -6.1956928952069159e+00 -8.0292269942209433e+00 -8.0397820224349488e+00 -8.0400604434864107e+00
 -8.0295030920798869e+00 -8.0407400517503174e+00 -8.0301769372566767e+00 -6.2030953832324354e+00 -6.2042318092250390e+00 -6.2170461231447725e+00 -6.2181852586204229e+00 -6.2070479277517858e+00 -6.2210081026183115e+00 -8.0217121644089922e+00
 -8.0142673039842371e+00 -8.0220007567995033e+00 -8.0145532390958358e+00 -6.1895881691237928e+00 -6.1986141077703607e+00 -6.1908313446362619e+00 -6.1998597520188659e+00 -8.0414307337686068e+00 -8.0308616224984579e+00 -8.0417202629455531e+00
 -8.0311485937981324e+00 -6.2099752073602268e+00 -6.2239423842323562e+00 -6.2112234204335195e+00 -6.2251935836435042e+00 -4.3032138971389884e+00 -4.3037892934051776e+00 -4.3075277912357759e+00 -4.3081064483426612e+00 -4.3056060871547865e+00
 -4.3099311259468749e+00 -4.3186133286649815e+00 -4.3192026276681066e+00 -4.3210502229396210e+00 -2.3880336719145250e+00 -2.3879954545478514e+00 -2.3917381527249537e+00 -2.3880493458091632e+00 -2.4026982527617524e+00 -2.3917033245623895e+00
 -2.4027526610742878e+00 -2.3917538098044173e+00 -2.4027314861981628e+00 -2.3883251708888680e+00 -2.3920305090295053e+00 -2.3887702537577669e+00 -2.4035014472857164e+00 -2.3924802075573335e+00 -2.4030378015983560e+00 -2.4207930586349402e+00
 -2.4447470725690166e+00 -2.4207578979057054e+00 -2.4448862094167425e+00 -2.4208415051152916e+00 -2.4447875294896702e+00 -2.4211469792639835e+00 -2.4457724370076450e+00 -2.4216439303123867e+00 -2.4452233088885342e+00 -4.3088633259815285e+00
 -4.3131971609927042e+00 -4.3138085358318872e+00 -4.3181503909284231e+00 -4.3243397564590582e+00 -4.3293134829567856e+00 -2.3896129389537686e+00 -2.3933260899222062e+00 -2.3907098638438105e+00 -2.4054739672840242e+00 -2.3944280100041295e+00
 -2.4043590276725326e+00 -2.3922663408688343e+00 -2.3959871393809320e+00 -2.3941317773653408e+00 -2.4089220979981425e+00 -2.3978568856284248e+00 -2.4070421055068993e+00 -2.4225191905729875e+00 -2.4478500528711091e+00 -2.4236609562155174e+00
 -2.4466691732277801e+00 -2.4252398302709164e+00 -2.4513708274693036e+00 -2.4271411905584590e+00 -2.4494387684396872e+00 -4.3307822544734433e+00 -4.3313846757228607e+00 -4.3332590858778088e+00 -4.3361906347178278e+00 -4.3367988585477999e+00
 -4.3386851023082516e+00 -2.4723169929923969e+00 -2.4988430929186451e+00 -2.4722733258663725e+00 -2.4991209455827859e+00 -2.4724870957106901e+00 -2.4988801137360563e+00 -2.4728571627113545e+00 -2.5002022397312209e+00 -2.4734756564674396e+00
 -2.4995131019489190e+00 -2.5185748310991851e+00 -2.5259769940773933e+00 -2.5185478300675692e+00 -2.5263136520084495e+00 -2.5188692968811059e+00 -2.5259975016533502e+00 -2.5192720000935300e+00 -2.5274822906889529e+00 -2.5200153330900990e+00
 -2.5267170114181154e+00 -4.3365746992281560e+00 -4.3415703912042387e+00 -4.3420121062168970e+00 -4.3470172899227633e+00 -2.4743896230908140e+00 -2.5024118413263170e+00 -2.4756224555151389e+00 -2.5011244623900728e+00 -2.4772139688170913e+00
 -2.5060176904086555e+00 -2.4791881781588421e+00 -2.5039981328312568e+00 -2.5209388310908358e+00 -2.5297518332675253e+00 -2.5222693409188466e+00 -2.5284032710217104e+00 -2.5238475707738122e+00 -2.5333963484524324e+00 -2.5259039851926497e+00
 -2.5313242058142489e+00 -1.3793690014924136e+00 -1.3844486286047633e+00 -1.3798631474962564e+00 -1.3850344911049957e+00 -1.3785948596995801e+00 -1.3836054928408505e+00 -1.4019263436084357e+00 -1.4012819776667624e+00 -1.4003819798144388e+00
 -3.3059989901164455e-01 -3.2747393668191543e-01 -3.3245716144012144e-01 -3.2745994905297160e-01 -3.2443724920063688e-01 -3.2360810610892737e-01 -3.4623841850970011e-01 -3.4045968759165385e-01 -3.3593731013141037e-01 -1.3780468925480842e+00
 -1.3830304304981984e+00 -1.3778772402499408e+00 -1.3828555868510708e+00 -1.3997911521324811e+00 -1.3996255028611353e+00 -3.2267369047488481e-01 -3.2160738167621244e-01 -3.2185669340729633e-01 -3.2073279973733726e-01 -3.3369615369830619e-01
 -3.3276459120935681e-01 -1.4322858138390739e+00 -1.4329075918179002e+00 -1.4314394535247319e+00 -1.4805359535946745e+00 -1.4800400588003351e+00 -1.4793903549071126e+00 -3.7972969470903983e-01 -3.7396190261647771e-01 -3.6948093381651298e-01
 -4.4691985057852385e-01 -4.4209191874767284e-01 -4.3851339975589382e-01 -1.4309104423875274e+00 -1.4308011932025146e+00 -1.4790236647030202e+00 -1.4790295826983380e+00 -3.6730576875181742e-01 -3.6643451701884067e-01 -4.3680913329809007e-01
 -4.3616189783234161e-01 -6.9334063891904607e-02 -6.3925960382219579e-02 -6.7570949947090633e-02 -5.3869236866575354e-02 1.8695416841479925e-01 1.9372310359219180e-01 1.9179182189785418e-01 2.2327646906357110e-01 3.7232903662223626e-01
 3.7262563014984557e-01 3.7258640628495410e-01 3.8884019419408544e-01 4.2333814360432048e-01 4.2335563284167727e-01 4.2335554495433325e-01 4.3840631772433375e-01 -6.0602672148327569e-02 -4.8733735906841560e-02 1.9634495710095726e-01
 2.2847206653178040e-01 3.7268011611995061e-01 3.8893486748457889e-01 4.2335576961239957e-01 4.3841096075177383e-01 -7.6685190843956544e-02 -6.1160738648129258e-02 1.8777552474644138e-01 2.2196447938536645e-01 3.7250658674213566e-01