DF-ISE text

Info {
  version = 1.0
  type    = dataset
  dimension   = 3
  nb_vertices = 5293
  nb_edges    = 23303
  nb_faces    = 30690
  nb_elements = 12980
  nb_regions  = 3
  datasets    = [ "ElectrostaticPotential" "ContactExternalVoltage" "ContactCurrentFlux" "ContactCharge" "eQuasiFermiPotential" "hQuasiFermiPotential" "QuasiFermiPotential" "LatticeTemperature" ]
  functions   = [ ElectrostaticPotential ContactExternalVoltage ContactCurrentFlux ContactCharge eQuasiFermiPotential hQuasiFermiPotential QuasiFermiPotential LatticeTemperature ]
}

Data {

  Dataset ("ElectrostaticPotential") {
    function  = ElectrostaticPotential
    type      = scalar
    dimension = 1
    location  = vertex
    validity  = [ "substrate" ]
    Values (5293) {
 -3.2537888985310792e+02 -3.2537067152404711e+02 -3.2537888985310792e+02 -3.2537888985310792e+02 -3.2537067207184288e+02 -3.2537067166099189e+02 -3.2539459903196263e+02 -3.2538638155161487e+02 -3.2535550504581801e+02 -3.2535550612198716e+02
 -3.2535550531453504e+02 -3.2537121854790132e+02 -3.2532322823847386e+02 -3.2532324164565046e+02 -3.2532323102138446e+02 -3.2533906707860035e+02 -3.2521760418176774e+02 -3.2522157925700793e+02 -3.2521834540669943e+02 -3.2527656875903813e+02
 -3.2401183435331427e+02 -3.2403133670638465e+02 -3.2401490134876923e+02 -3.2410727140108986e+02 -3.2273915935982899e+02 -3.2276594659319846e+02 -3.2274280832102681e+02 -3.2281219095341731e+02 -3.2146333406140241e+02 -3.2149325339132628e+02
 -3.2146685259612156e+02 -3.2151710082705046e+02 -3.2537888985310792e+02 -3.2537067166099547e+02 -3.2539459903196263e+02 -3.2538638168855294e+02 -3.2535550531468266e+02 -3.2537121881552457e+02 -3.2532323126768392e+02 -3.2533906835100356e+02
 -3.2521845460503124e+02 -3.2527671327783759e+02 -3.2401556936186546e+02 -3.2411232864351530e+02 -3.2274385578071428e+02 -3.2281852801819144e+02 -3.2146812348699990e+02 -3.2152323729880709e+02 -3.1119824598556386e+02 -3.1120816347080614e+02
 -3.1119874169980915e+02 -3.1120999424632964e+02 -3.1119891836829424e+02 -3.1121069166393954e+02 -3.2537888985310792e+02 -3.2537067207184657e+02 -3.2539459903196263e+02 -3.2538638158585093e+02 -3.2535550612253849e+02 -3.2537121861482808e+02
 -3.2532324263381395e+02 -3.2533906745240199e+02 -3.2522201807788724e+02 -3.2527665424756924e+02 -3.2403441561287480e+02 -3.2411134245185332e+02 -3.2277132326087303e+02 -3.2281896868163670e+02 -3.2150048438133172e+02 -3.2152575633243043e+02
 -3.2539459903196263e+02 -3.2538638172278945e+02 -3.2537121888245383e+02 -3.2533906872837252e+02 -3.2527680198666513e+02 -3.2411664283078386e+02 -3.2282571850586379e+02 -3.2153240826242336e+02 -3.1121422823032526e+02 -3.1121625439970757e+02
 -3.1121703429106350e+02 -3.2537888985310792e+02 -3.2537067166099149e+02 -3.2539459903196263e+02 -3.2538638153669007e+02 -3.2535550531445654e+02 -3.2537121851871939e+02 -3.2532323087995184e+02 -3.2533906690102043e+02 -3.2521828264458514e+02
 -3.2527652091942144e+02 -3.2401451366861784e+02 -3.2410567137716077e+02 -3.2274215318287401e+02 -3.2280986364493390e+02 -3.2146599468677977e+02 -3.2151445447516170e+02 -3.2537888985310792e+02 -3.2537067150912139e+02 -3.2537717774777701e+02
 -3.2536895992181655e+02 -3.2535550501629535e+02 -3.2535379348586929e+02 -3.2532322750938732e+02 -3.2532147590861410e+02 -3.2521733564872289e+02 -3.2520244131363472e+02 -3.2401074580456617e+02 -3.2401466437722456e+02 -3.2273765017996993e+02
 -3.2275439559500262e+02 -3.2146161130207622e+02 -3.2148563973762344e+02 -3.1119828923588994e+02 -3.1120917355978958e+02 -3.1119755002297109e+02 -3.1120676490922682e+02 -3.2539459903196263e+02 -3.2538638157092601e+02 -3.2537121858564541e+02
 -3.2533906727300689e+02 -3.2527660476355902e+02 -3.2410962562587724e+02 -3.2281642729530688e+02 -3.2152282220529474e+02 -3.2537717774777701e+02 -3.2536895991377236e+02 -3.2535379347099445e+02 -3.2532147729688018e+02 -3.2520303950107012e+02
 -3.2401747085342691e+02 -3.2275928327152644e+02 -3.2149227269864639e+02 -3.1121530711913215e+02 -3.1121262934862540e+02 -3.0089450401986301e+02 -3.0089742686644837e+02 -3.0089454868813863e+02 -3.0089756028514654e+02 -3.0089453665677479e+02
 -3.0089758557965183e+02 -2.9056970580224856e+02 -2.9057063992106794e+02 -2.9056970606850103e+02 -2.9057064574024895e+02 -2.9056969336880525e+02 -2.9057063410199021e+02 -3.0090047949194042e+02 -3.0090063175018491e+02 -3.0090066061841492e+02
 -2.9057201413103400e+02 -2.9057202110171630e+02 -2.9057200800937233e+02 -3.0089440225502022e+02 -3.0089735239047525e+02 -3.0089429206481594e+02 -3.0089711812001946e+02 -2.9056966494565734e+02 -2.9057059468216534e+02 -2.9056964726434057e+02
 -2.9057056679479592e+02 -3.0090039017870532e+02 -3.0090012133730681e+02 -2.9057196232399838e+02 -2.9057192995465567e+02 -3.2537888985310792e+02 -3.2537067207184663e+02 -3.2539459903196263e+02 -3.2538638158585104e+02 -3.2535550612264586e+02
 -3.2537121861483166e+02 -3.2532324283126860e+02 -3.2533906746434229e+02 -3.2522210579969800e+02 -3.2527666486826433e+02 -3.2403504268103029e+02 -3.2411195915669464e+02 -3.2277246096516853e+02 -3.2282014432911069e+02 -3.2150207679137628e+02
 -3.2152741990856765e+02 -3.2539459903196263e+02 -3.2538638172278951e+02 -3.2537121888245736e+02 -3.2533906874036319e+02 -3.2527681266433905e+02 -3.2411727161692028e+02 -3.2282691839643388e+02 -3.2153410606768978e+02 -3.1121672301684333e+02
 -3.1121876717679510e+02 -3.1121955166771687e+02 -3.2537888985310792e+02 -3.2537067207184663e+02 -3.2539459903196263e+02 -3.2538638158585104e+02 -3.2535550612266218e+02 -3.2537121861483217e+02 -3.2532324286128051e+02 -3.2533906746607579e+02
 -3.2522211913321746e+02 -3.2527666641081629e+02 -3.2403513827038688e+02 -3.2411204879395939e+02 -3.2277263570563537e+02 -3.2282031759016502e+02 -3.2150232399404211e+02 -3.2152766904257072e+02 -3.2539459903196263e+02 -3.2538638172278951e+02
 -3.2537121888245781e+02 -3.2533906874207423e+02 -3.2527681418874954e+02 -3.2411736148664914e+02 -3.2282709242210524e+02 -3.2153435650201436e+02 -3.1121720309924666e+02 -3.1121924830803601e+02 -3.1122003223683402e+02 -3.2539459903196263e+02
 -3.2538638157092612e+02 -3.2537121858564888e+02 -3.2533906728486016e+02 -3.2527661529604597e+02 -3.2411023193656609e+02 -3.2281758128170782e+02 -3.2152445390224165e+02 -3.2537717774777701e+02 -3.2536895991377236e+02 -3.2535379347120931e+02
 -3.2532147766332025e+02 -3.2520319016302335e+02 -3.2401811671281479e+02 -3.2276040403138717e+02 -3.2149382011693677e+02 -3.1121779172294777e+02 -3.1121508308214396e+02 -3.2539459903196263e+02 -3.2538638157092612e+02 -3.2537121858564933e+02
 -3.2533906728659593e+02 -3.2527661683892887e+02 -3.2411032077190526e+02 -3.2281775266419260e+02 -3.2152470007397062e+02 -3.2537717774777701e+02 -3.2536895991377236e+02 -3.2535379347124280e+02 -3.2532147772035887e+02 -3.2520321361429876e+02
 -3.2401821735045405e+02 -3.2276057955297557e+02 -3.2149406456712057e+02 -3.1121826817380634e+02 -3.1121555654898208e+02 -3.0090217746148852e+02 -3.0090233156179266e+02 -3.0090235861313482e+02 -2.9057292282589259e+02 -2.9057292970712888e+02
 -2.9057291555413320e+02 -3.0090249849634324e+02 -3.0090265259648328e+02 -3.0090267895138413e+02 -2.9057305901686902e+02 -2.9057306581546925e+02 -2.9057305134644719e+02 -3.0090207927665250e+02 -3.0090180398446836e+02 -2.9057286775894852e+02
 -2.9057283414842198e+02 -3.0090239805750087e+02 -3.0090212182225815e+02 -2.9057300308305895e+02 -2.9057296922882938e+02 -2.8022818399725753e+02 -2.8022851311137180e+02 -2.8022818274946826e+02 -2.8022851211573885e+02 -2.8022817828882660e+02
 -2.8022850735697773e+02 -2.6987116071944394e+02 -2.6987127796524885e+02 -2.6987116032242000e+02 -2.6987127755714044e+02 -2.6987115924907852e+02 -2.6987127640697599e+02 -2.8022910530006266e+02 -2.8022910424176229e+02 -2.8022909891565752e+02
 -2.6987151677275398e+02 -2.6987151632714028e+02 -2.6987151505686029e+02 -2.8022817197739096e+02 -2.8022849972017735e+02 -2.8022816873498402e+02 -2.8022849552375902e+02 -2.6987115802168165e+02 -2.6987127504037522e+02 -2.6987115746421682e+02
 -2.6987127440337872e+02 -2.8022909019352142e+02 -2.8022908536590580e+02 -2.6987151353117241e+02 -2.6987151281558579e+02 -2.4911186050973595e+02 -2.4911189307466296e+02 -2.4911186046805841e+02 -2.4911189303112494e+02 -2.4911186036381744e+02
 -2.4911189292127497e+02 -2.4911196914092662e+02 -2.4911196909383145e+02 -2.4911196897457106e+02 -2.4911186025454631e+02 -2.4911189280491351e+02 -2.4911186020770083e+02 -2.4911189275465122e+02 -2.4911196884767804e+02 -2.4911196879270477e+02
 -2.8022953242458038e+02 -2.8022953126682495e+02 -2.8022952559692646e+02 -2.6987169610162448e+02 -2.6987169562794156e+02 -2.6987169428094739e+02 -2.8022956150587657e+02 -2.8022956031219530e+02 -2.8022955453875926e+02 -2.6987168599743325e+02
 -2.6987168551425384e+02 -2.6987168414266523e+02 -2.8022951639492601e+02 -2.8022951132406985e+02 -2.6987169266639478e+02 -2.6987169191020399e+02 -2.8022954521053299e+02 -2.8022954008026574e+02 -2.6987168250121817e+02 -2.6987168173318508e+02
 -2.4911204341545221e+02 -2.4911204336572663e+02 -2.4911204323982170e+02 -2.4911207512623096e+02 -2.4911207507557205e+02 -2.4911207494735186e+02 -2.4911204310587721e+02 -2.4911204304785949e+02 -2.4911207481100541e+02 -2.4911207475196704e+02
 -2.2829288812001772e+02 -2.2829292257765351e+02 -2.2829288811599000e+02 -2.2829292257347822e+02 -2.2829288810611362e+02 -2.2829292256322537e+02 -2.2829301718879617e+02 -2.2829301718434164e+02 -2.2829301717339240e+02 -2.2829288809598128e+02
 -2.2829292255268177e+02 -2.2829288809166175e+02 -2.2829292254818321e+02 -2.2829301716212115e+02 -2.2829301715731191e+02 -2.0741422714625241e+02 -2.0741429854836443e+02 -2.0741422714582009e+02 -2.0741429854791986e+02 -2.0741422714473023e+02
 -2.0741429854680521e+02 -2.0741450120233625e+02 -2.0741450120187034e+02 -2.0741450120070402e+02 -2.0741422714353115e+02 -2.0741429854558098e+02 -2.0741422714295300e+02 -2.0741429854499427e+02 -2.0741450119942738e+02 -2.0741450119881898e+02
 -2.2829314958119008e+02 -2.2829314957651420e+02 -2.2829314956502142e+02 -2.2829329202169268e+02 -2.2829329201692360e+02 -2.2829329200520326e+02 -2.2829314955319381e+02 -2.2829314954815050e+02 -2.2829329199314463e+02 -2.2829329198800471e+02
 -2.0741480265225525e+02 -2.0741480265176907e+02 -2.0741480265055361e+02 -2.0741515543622972e+02 -2.0741515543572390e+02 -2.0741515543446064e+02 -2.0741480264922774e+02 -2.0741480264859905e+02 -2.0741515543308643e+02 -2.0741515543243781e+02
 -1.8647558186002178e+02 -1.8647573641644928e+02 -1.8647558186003278e+02 -1.8647573641645769e+02 -1.8647558186001567e+02 -1.8647573641643942e+02 -1.8647617693757749e+02 -1.8647617693758357e+02 -1.8647617693756015e+02 -1.8647558185989101e+02
 -1.8647573641631385e+02 -1.8647558185975532e+02 -1.8647573641617970e+02 -1.8647617693742973e+02 -1.8647617693729376e+02 -1.6547628695507197e+02 -1.6547661725851111e+02 -1.6547628695640063e+02 -1.6547661725983815e+02 -1.6547628695956399e+02
 -1.6547661726300237e+02 -1.6547756016752723e+02 -1.6547756016885307e+02 -1.6547756017201496e+02 -1.6547628696261708e+02 -1.6547661726605645e+02 -1.6547628696379357e+02 -1.6547661726723507e+02 -1.6547756017506697e+02 -1.6547756017624494e+02
 -1.8647683729324058e+02 -1.8647683729324197e+02 -1.8647683729320727e+02 -1.8647761791110972e+02 -1.8647761791109681e+02 -1.8647761791102715e+02 -1.8647683729306578e+02 -1.8647683729292555e+02 -1.8647761791085028e+02 -1.8647761791069556e+02
 -1.6547897771840567e+02 -1.6547897771972538e+02 -1.6547897772287249e+02 -1.6548065984694190e+02 -1.6548065984823950e+02 -1.6548065985133275e+02 -1.6547897772591000e+02 -1.6547897772708225e+02 -1.6548065985431606e+02 -1.6548065985546603e+02
 -3.2537888985310792e+02 -3.2537067207184657e+02 -3.2539459903196263e+02 -3.2538638158585104e+02 -3.2535550612262983e+02 -3.2537121861483121e+02 -3.2532324280181700e+02 -3.2533906746267178e+02 -3.2522209271466193e+02 -3.2527666338177238e+02
 -3.2403494870019580e+02 -3.2411187276450630e+02 -3.2277228740788780e+02 -3.2281997554248528e+02 -3.2150182710370302e+02 -3.2152717290090169e+02 -3.2539459903196263e+02 -3.2538638172278951e+02 -3.2537121888245696e+02 -3.2533906873872650e+02
 -3.2527681120618377e+02 -3.2411718562744238e+02 -3.2282675004059530e+02 -3.2153385938938595e+02 -3.1121605201412240e+02 -3.1121809633106528e+02 -3.1121888058861515e+02 -3.2537888985310792e+02 -3.2537067207184651e+02 -3.2539459903196263e+02
 -3.2538638158585093e+02 -3.2535550612248096e+02 -3.2537121861482649e+02 -3.2532324252840527e+02 -3.2533906744649948e+02 -3.2522197125210613e+02 -3.2527664899614655e+02 -3.2403408250351731e+02 -3.2411103769063800e+02 -3.2277071743365246e+02
 -3.2281838137050357e+02 -3.2149962982711520e+02 -3.2152491273256800e+02 -3.2539459903196263e+02 -3.2538638172278939e+02 -3.2537121888245224e+02 -3.2533906872259553e+02 -3.2527679684050895e+02 -3.2411633975344637e+02 -3.2282513313442394e+02
 -3.2153156632823180e+02 -3.1121250171853950e+02 -3.1121452867854526e+02 -3.1121530798037531e+02 -3.2539459903196263e+02 -3.2538638157092612e+02 -3.2537121858564842e+02 -3.2533906728315111e+02 -3.2527661377696109e+02 -3.2411014448500998e+02
 -3.2281741081927208e+02 -3.2152420484040084e+02 -3.2537717774777701e+02 -3.2536895991377236e+02 -3.2535379347117549e+02 -3.2532147760555250e+02 -3.2520316641132365e+02 -3.2401801453927175e+02 -3.2276022409173868e+02 -3.2149356545390174e+02
 -3.1121711988388972e+02 -3.1121441052266596e+02 -3.2539459903196263e+02 -3.2538638157092601e+02 -3.2537121858564370e+02 -3.2533906726695966e+02 -3.2527659938964058e+02 -3.2410931678055033e+02 -3.2281583351852726e+02 -3.2152197069798183e+02
 -3.2537717774777701e+02 -3.2536895991377224e+02 -3.2535379347087184e+02 -3.2532147708807224e+02 -3.2520295365954155e+02 -3.2401710676321738e+02 -3.2275865284049496e+02 -3.2149139875740769e+02 -3.1121357809264146e+02 -3.1121089756030602e+02
 -3.0090146839415132e+02 -3.0090162246917038e+02 -3.0090164939207222e+02 -2.9057234563085791e+02 -2.9057235249692332e+02 -2.9057233829957158e+02 -3.0089889162264166e+02 -3.0089904384826485e+02 -3.0089907237400951e+02 -2.9057082205702301e+02
 -2.9057082899268221e+02 -2.9057081578733846e+02 -3.0090136985060713e+02 -3.0090109443453099e+02 -2.9057229045009109e+02 -2.9057225681307290e+02 -3.0089880129807347e+02 -3.0089853204122335e+02 -2.9057076995295967e+02 -2.9057073750710896e+02
 -3.2537888985310792e+02 -3.2537067206437956e+02 -3.2539459903196263e+02 -3.2538638154788339e+02 -3.2535550610703348e+02 -3.2537121854059836e+02 -3.2532324093028342e+02 -3.2533906701089677e+02 -3.2522128925907748e+02 -3.2527653628954135e+02
 -3.2402966947781539e+02 -3.2410576949600664e+02 -3.2276322495195768e+02 -3.2280957070740789e+02 -3.2148971903202221e+02 -3.2151362101021215e+02 -3.2539459903196263e+02 -3.2538638168482152e+02 -3.2537121880822201e+02 -3.2533906828412449e+02
 -3.2527668149446072e+02 -3.2411083751285258e+02 -3.2281592020496299e+02 -3.2151976839643135e+02 -3.1120436452500360e+02 -3.1120619922987771e+02 -3.1120689618409455e+02 -3.2537717774777701e+02 -3.2536895927468686e+02 -3.2537717774777701e+02
 -3.2536895942237925e+02 -3.2535379220627891e+02 -3.2535379249719176e+02 -3.2532144702792476e+02 -3.2532145172173790e+02 -3.2519274884871732e+02 -3.2519418204548901e+02 -3.2398685006870664e+02 -3.2399035043884612e+02 -3.2271804228858986e+02
 -3.2272194970453035e+02 -3.2144559527717814e+02 -3.2144924642265914e+02 -3.2537717774777701e+02 -3.2536895942238334e+02 -3.2535379249753441e+02 -3.2532145227934041e+02 -3.2519441080649307e+02 -3.2399111376624427e+02 -3.2272306584293352e+02
 -3.2145056155185051e+02 -3.1119100320244434e+02 -3.1119150818911277e+02 -3.1119168671781421e+02 -3.2539459903196263e+02 -3.2538638153295852e+02 -3.2537121851141615e+02 -3.2533906683256822e+02 -3.2527648782520589e+02 -3.2410415248863274e+02
 -3.2280721869077951e+02 -3.2151094649893275e+02 -3.2537717774777701e+02 -3.2536895991376747e+02 -3.2535379346937833e+02 -3.2532147457198846e+02 -3.2520191959609286e+02 -3.2401283430857796e+02 -3.2275156027954858e+02 -3.2148202885228329e+02
 -3.1120536986507426e+02 -3.1120295145840271e+02 -3.2537717774777701e+02 -3.2536895942237868e+02 -3.2535379249699730e+02 -3.2532145139352593e+02 -3.2519404732933646e+02 -3.2398989579314167e+02 -3.2272123514899982e+02 -3.2144833721609655e+02
 -3.2537717774777701e+02 -3.2536895925858948e+02 -3.2535379217401663e+02 -3.2532144557662286e+02 -3.2519220813776911e+02 -3.2398556164959217e+02 -3.2271638777735188e+02 -3.2144376999939789e+02 -3.1119104320984951e+02 -3.1119028757654883e+02
 -3.0089470330344108e+02 -3.0089483683982081e+02 -3.0089486153087216e+02 -2.9056884017676299e+02 -2.9056884594710107e+02 -2.9056883410726738e+02 -3.0089079538658717e+02 -3.0089084050370383e+02 -3.0089082790052760e+02 -2.9056755759032808e+02
 -2.9056755781787240e+02 -2.9056754488120743e+02 -3.0089462680854660e+02 -3.0089439139812970e+02 -2.9056879438363677e+02 -2.9056876632654502e+02 -3.0089069123149960e+02 -3.0089057928262793e+02 -2.9056751604765503e+02 -2.9056749812141737e+02
 -2.8022912490716885e+02 -2.8022912374441228e+02 -2.8022911806154571e+02 -2.6987144647417324e+02 -2.6987144599925637e+02 -2.6987144464920175e+02 -2.8022830209292306e+02 -2.8022830102288208e+02 -2.8022829566532187e+02 -2.6987103836636112e+02
 -2.6987103791787280e+02 -2.6987103664035698e+02 -2.8022910884535975e+02 -2.8022910376819794e+02 -2.6987144303147312e+02 -2.6987144227392747e+02 -2.8022828690751180e+02 -2.8022828206357082e+02 -2.6987103510698643e+02 -2.6987103438802501e+02
 -2.4911204705204395e+02 -2.4911204700214117e+02 -2.4911204687579990e+02 -2.4911197313409198e+02 -2.4911197308649980e+02 -2.4911197296597828e+02 -2.4911204674140515e+02 -2.4911204668319471e+02 -2.4911197283770241e+02 -2.4911197278207001e+02
 -2.8022737837463433e+02 -2.8022737735986601e+02 -2.8022737254651440e+02 -2.6987062653696916e+02 -2.6987062612390577e+02 -2.6987062496083882e+02 -2.8022689958391203e+02 -2.8022689831385861e+02 -2.8022689378515571e+02 -2.6987044093236130e+02
 -2.6987044052865252e+02 -2.6987043943670051e+02 -2.8022736484364412e+02 -2.8022736061500825e+02 -2.6987062357960821e+02 -2.6987062293527106e+02 -2.8022688738397926e+02 -2.8022688409038648e+02 -2.6987043818415492e+02 -2.6987043760741125e+02
 -2.4911189439535264e+02 -2.4911189435061164e+02 -2.4911189423747720e+02 -2.4911185999118271e+02 -2.4911185994714617e+02 -2.4911185983556075e+02 -2.4911189411686556e+02 -2.4911189406379773e+02 -2.4911185971343909e+02 -2.4911185965237692e+02
 -2.2829341960761550e+02 -2.2829341960286484e+02 -2.2829341959118537e+02 -2.2829351571393229e+02 -2.2829351570920045e+02 -2.2829351569752799e+02 -2.2829341957916068e+02 -2.2829341957403059e+02 -2.2829351568542205e+02 -2.2829351568018379e+02
 -2.0741550518181398e+02 -2.0741550518126229e+02 -2.0741550517988262e+02 -2.0741579925044582e+02 -2.0741579924972186e+02 -2.0741579924787882e+02 -2.0741550517838220e+02 -2.0741550517767632e+02 -2.0741579924581447e+02 -2.0741579924479649e+02
 -2.2829357335604308e+02 -2.2829357335099797e+02 -2.2829357333828028e+02 -2.2829359224273790e+02 -2.2829359223673274e+02 -2.2829359222044494e+02 -2.2829357332432397e+02 -2.2829357331734985e+02 -2.2829359219831224e+02 -2.2829359217958907e+02
 -2.0741599445112499e+02 -2.0741599444983908e+02 -2.0741599444632800e+02 -2.0741606273939792e+02 -2.0741606273702013e+02 -2.0741606272958686e+02 -2.0741599444175580e+02 -2.0741599443869725e+02 -2.0741606271634467e+02 -2.0741606270076016e+02
 -1.8647840037211003e+02 -1.8647840037204455e+02 -1.8647840037184233e+02 -1.8647906517281038e+02 -1.8647906517255578e+02 -1.8647906517184921e+02 -1.8647840037152315e+02 -1.8647840037130447e+02 -1.8647906517092471e+02 -1.8647906517037651e+02
 -1.6548235303880253e+02 -1.6548235304003023e+02 -1.6548235304294917e+02 -1.6548379730791902e+02 -1.6548379730893183e+02 -1.6548379731128404e+02 -1.6548235304574840e+02 -1.6548235304681725e+02 -1.6548379731341564e+02 -1.6548379731412899e+02
 -1.8647951013069479e+02 -1.8647951012985843e+02 -1.8647951012743491e+02 -1.8647966652019298e+02 -1.8647966651825465e+02 -1.8647966651187633e+02 -1.8647951012394907e+02 -1.8647951012131571e+02 -1.8647966649958391e+02 -1.8647966648376820e+02
 -1.6548476694673332e+02 -1.6548476694713912e+02 -1.6548476694771287e+02 -1.6548510832336839e+02 -1.6548510832266109e+02 -1.6548510831924688e+02 -1.6548476694721845e+02 -1.6548476694579884e+02 -1.6548510830981442e+02 -1.6548510829451837e+02
 -1.4441493635560516e+02 -1.4441563441131495e+02 -1.4441493637146687e+02 -1.4441563442717947e+02 -1.4441493640971700e+02 -1.4441563446544089e+02 -1.4441763156311279e+02 -1.4441763157898157e+02 -1.4441763161725379e+02 -1.4441493644785609e+02
 -1.4441563450359138e+02 -1.4441493646356196e+02 -1.4441563451930347e+02 -1.4441763165541528e+02 -1.4441763167113220e+02 -1.2328858752084821e+02 -1.2329004139007237e+02 -1.2328858770060991e+02 -1.2329004156991506e+02 -1.2328858813460364e+02
 -1.2329004200410859e+02 -1.2329421776358822e+02 -1.2329421794359084e+02 -1.2329421837817124e+02 -1.2328858856856112e+02 -1.2329004243826596e+02 -1.2328858874823865e+02 -1.2329004261802767e+02 -1.2329421881271594e+02 -1.2329421899263842e+02
 -1.4442064656623202e+02 -1.4442064658207744e+02 -1.4442064662029333e+02 -1.4442424426349734e+02 -1.4442424427923899e+02 -1.4442424431720386e+02 -1.4442064665839879e+02 -1.4442064667409284e+02 -1.4442424435505799e+02 -1.4442424437064810e+02
 -1.2330057084842028e+02 -1.2330057102837232e+02 -1.2330057146283080e+02 -1.2330823020632155e+02 -1.2330823038544068e+02 -1.2330823081788790e+02 -1.2330057189725422e+02 -1.2330057207712682e+02 -1.2330823125029977e+02 -1.2330823142933944e+02
 -1.0209118864028667e+02 -1.0209413925707946e+02 -1.0209119066798110e+02 -1.0209414128604949e+02 -1.0209119556513151e+02 -1.0209414618628739e+02 -1.0210267801912191e+02 -1.0210268005105635e+02 -1.0210268495845850e+02 -1.0209120046488603e+02
 -1.0209415108913466e+02 -1.0209120249513357e+02 -1.0209415312066599e+02 -1.0210268986847996e+02 -1.0210269190298601e+02 -8.0810706541795838e+01 -8.0816406218716480e+01 -8.0810729382150939e+01 -8.0816429076908719e+01 -8.0810784588070291e+01
 -8.0816484326048595e+01 -8.0833123218835581e+01 -8.0833146122157572e+01 -8.0833201480501870e+01 -8.0810839886343317e+01 -8.0816539667753773e+01 -8.0810862819017913e+01 -8.0816562618479139e+01 -8.0833256931760573e+01 -8.0833279927964469e+01
 -1.0211585094032735e+02 -1.0211585297399182e+02 -1.0211585788557748e+02 -1.0213204082609803e+02 -1.0213204285364392e+02 -1.0213204775046148e+02 -1.0211586279979241e+02 -1.0211586483603861e+02 -1.0213205264991332e+02 -1.0213205468004625e+02
 -8.0859584699565190e+01 -8.0859607648957734e+01 -8.0859663118770868e+01 -8.0893289435476007e+01 -8.0893312361794784e+01 -8.0893367776128997e+01 -8.0859718681840974e+01 -8.0859741724458047e+01 -8.0893423284033034e+01 -8.0893446303889363e+01
 -5.9424482681177864e+01 -5.9434458970065585e+01 -5.9424739233830451e+01 -5.9434715755380346e+01 -5.9425360774773011e+01 -5.9435337864196356e+01 -5.9464444134588291e+01 -5.9464701531565439e+01 -5.9465325126109427e+01 -5.9425985455039559e+01
 -5.9435963120697885e+01 -5.9426245148327446e+01 -5.9436223054954034e+01 -5.9465951880775386e+01 -5.9466212439085872e+01 -4.8677505011129519e+01 -4.8680706120982897e+01 -4.8678752148244556e+01 -4.8689482724591642e+01 -4.8690731135969294e+01
 -4.8681944896765010e+01 -4.8681791496283736e+01 -4.8693773679891237e+01 -4.8684963568171980e+01 -3.7880087979691467e+01 -3.7885200845179739e+01 -3.7883328124938807e+01 -3.7888442057578644e+01 -3.7893149114189804e+01 -3.7898267619964344e+01
 -3.7897824696401614e+01 -3.7901069046401034e+01 -3.7910906684970648e+01 -4.8704888500266456e+01 -4.8726287923642538e+01 -4.8727539579918378e+01 -4.8706129620376778e+01 -4.8730590085485261e+01 -4.8709154100106673e+01 -3.7910019614238237e+01
 -3.7915143696179435e+01 -3.7934546029205777e+01 -3.7939678049866771e+01 -3.7927796989502795e+01 -3.7952351059481337e+01 -4.8684872734546644e+01 -4.8696858271617842e+01 -4.8688023389964606e+01 -4.8686161797180041e+01 -4.8698148763847051e+01
 -4.8689303349514830e+01 -3.7910870088819941e+01 -3.7914118280721034e+01 -3.7923969334145575e+01 -3.7916405145797135e+01 -3.7919655086558855e+01 -3.7929512024023694e+01 -4.8733682812184057e+01 -4.8712219928762003e+01 -4.8734976721562980e+01
 -4.8713502429158531e+01 -3.7940874875864949e+01 -3.7965449408328119e+01 -3.7946424137281838e+01 -3.7971007349997954e+01 -5.9514197602543113e+01 -5.9514455798156739e+01 -5.9515081329192626e+01 -5.9581911286863985e+01 -5.9582169850337124e+01
 -5.9582796279951090e+01 -5.9515710032069407e+01 -5.9515971400725284e+01 -5.9583425895898166e+01 -5.9583687646901929e+01 -4.8754867108932224e+01 -4.8790045352533099e+01 -4.8791301806668464e+01 -4.8756112238372467e+01 -4.8794363998983911e+01
 -4.8759146499727223e+01 -3.7967651793617968e+01 -3.7972792639729306e+01 -3.8010368739914362e+01 -3.8015521576248979e+01 -3.7985487379180292e+01 -3.8028245800019526e+01 -4.8832878432121618e+01 -4.8882539095209495e+01 -4.8883800586413429e+01
 -4.8834128850133212e+01 -4.8886875107025041e+01 -4.8837176004311786e+01 -3.8063981810345197e+01 -3.8069148253993191e+01 -3.8129717785152678e+01 -3.8134900014747018e+01 -3.8081906024646095e+01 -3.8147696945053518e+01 -4.8797468556081057e+01
 -4.8762222250640498e+01 -4.8798767406792912e+01 -4.8763508900579474e+01 -3.7998608035180858e+01 -3.8041396681150289e+01 -3.8004175377956663e+01 -3.8046976754116201e+01 -4.8889992224247621e+01 -4.8840264821553610e+01 -4.8891296343776723e+01
 -4.8841556933470862e+01 -3.8095091407075245e+01 -3.8160922926263233e+01 -3.8100686041003790e+01 -3.8166534784611564e+01 -2.7000993469076878e+01 -2.7003861898274490e+01 -2.7020822506795824e+01 -2.7023696200328171e+01 -2.7012816021093766e+01
 -2.7032666418518733e+01 -2.7071363538957876e+01 -2.7074258995346781e+01 -2.7083281296706350e+01 -1.5924173194264290e+01 -1.5923792362101771e+01 -1.5941781877669079e+01 -1.5924775752872854e+01 -1.5993399324907040e+01 -1.5941416021917055e+01
 -1.5994335440369881e+01 -1.5942380717949568e+01 -1.5993741136649273e+01 -1.5926693044054186e+01 -1.5944289118030463e+01 -1.5929445962792190e+01 -1.5999020032802681e+01 -1.5947051386805235e+01 -1.5996233568630343e+01 -1.6078143067220456e+01
 -1.6188414759425537e+01 -1.6077834938715121e+01 -1.6189459135054125e+01 -1.6078787176693350e+01 -1.6188689024501315e+01 -1.6080684803373181e+01 -1.6194386588535433e+01 -1.6083550256095542e+01 -1.6191378292506585e+01 -2.7028681019496105e+01
 -2.7048554423168607e+01 -2.7052577178359968e+01 -2.7072478226071105e+01 -2.7099233051937528e+01 -2.7123228284815518e+01 -1.5934000138376160e+01 -1.5951607017637574e+01 -1.5939739380929931e+01 -1.6009380439590203e+01 -1.5957361722142997e+01
 -1.6003588571392715e+01 -1.5947579901253485e+01 -1.5965207081825779e+01 -1.5956898178873830e+01 -1.6026623591085887e+01 -1.5974543349138420e+01 -1.6017245504148473e+01 -1.6088134327639182e+01 -1.6204995132188198e+01 -1.6094011205785783e+01
 -1.6198986959696054e+01 -1.6101894195162927e+01 -1.6222482420586950e+01 -1.6111361300154261e+01 -1.6212885656689981e+01 -2.7126069858054734e+01 -2.7128998047499469e+01 -2.7138088889059478e+01 -2.7150076034451832e+01 -2.7153019893602906e+01
 -2.7162142710342163e+01 -1.6313075129281589e+01 -1.6430097839399345e+01 -1.6312834680774241e+01 -1.6431513658350379e+01 -1.6314066983166960e+01 -1.6430284396973505e+01 -1.6316018777416584e+01 -1.6436934197529794e+01 -1.6319241600505805e+01
 -1.6433482018546847e+01 -1.6515296951071548e+01 -1.6546801887974592e+01 -1.6515161013180464e+01 -1.6548394899899527e+01 -1.6516708566033415e+01 -1.6546908851365757e+01 -1.6518679654436895e+01 -1.6554057715964408e+01 -1.6522309216659799e+01
 -1.6550355316075237e+01 -2.7154114967947493e+01 -2.7178187863966411e+01 -2.7178202148992053e+01 -2.7202308861073814e+01 -1.6323841665155840e+01 -1.6447899275552043e+01 -1.6330033417318866e+01 -1.6441513635151441e+01 -1.6337903534534355e+01
 -1.6465683418868490e+01 -1.6347677396099055e+01 -1.6455725192791739e+01 -1.6526864082038241e+01 -1.6565192905195964e+01 -1.6533400779659289e+01 -1.6558592651901360e+01 -1.6541184452063590e+01 -1.6583113100652671e+01 -1.6551286760418655e+01
 -1.6572950215596574e+01 -1.0162323147392962e+01 -1.0188874637565903e+01 -1.0163567875415360e+01 -1.0190344375281269e+01 -1.0160514674253328e+01 -1.0186875882710599e+01 -1.0275302098922072e+01 -1.0273569641366946e+01 -1.0271280000399470e+01
 -4.1953758589684282e+00 -4.1866028045395538e+00 -4.2145923802536380e+00 -4.2017960564365930e+00 -4.1780020058172518e+00 -4.1914435941447099e+00 -4.2988704281494563e+00 -4.2831529645193340e+00 -4.2706238018930458e+00 -1.0159618342875950e+01
 -1.0185887743174266e+01 -1.0160118274883654e+01 -1.0186356724109555e+01 -1.0270139558392200e+01 -1.0270564900371177e+01 -4.1730900306528964e+00 -4.1860148716248693e+00 -4.1710616544368513e+00 -4.1838547399628245e+00 -4.2643326111750071e+00
 -4.2619095030467227e+00 -1.0425454785200838e+01 -1.0427380010119887e+01 -1.0423006769981532e+01 -1.0655038556829236e+01 -1.0653195856754712e+01 -1.0650979556755502e+01 -4.4862909840063248e+00 -4.4677205986351485e+00 -4.4534620182681364e+00
 -4.8466682741628686e+00 -4.8269112613432288e+00 -4.8127543737402210e+00 -1.0421825485081712e+01 -1.0422289189189408e+01 -1.0650036114999120e+01 -1.0650704678273238e+01 -4.4465740429103624e+00 -4.4440238418897131e+00 -4.8062266729241898e+00
 -4.8039672689327091e+00 -2.6897376226051550e+00 -2.6730375954399732e+00 -2.6954504334262275e+00 -2.6616526041826054e+00 -1.1909859038746695e+00 -1.1649595735233811e+00 -1.1800387782934085e+00 -1.1023444526931334e+00 2.2383254521864124e-01
 2.5034807711830048e-01 2.4348398013768568e-01 3.6762057799502607e-01 4.2300289765222671e-01 4.2308031150793290e-01 4.2306474313222786e-01 4.3838163408052711e-01 -2.6627304398617384e+00 -2.6479274390855836e+00 -1.1548681664763607e+00
 -1.0881877778048856e+00 2.5580471098144097e-01 3.6874782489275976e-01 4.2309270496240825e-01 4.3838755634869880e-01 -2.7594093737310059e+00 -2.7185552949203893e+00 -1.2187108837873533e+00 -1.1283623519358155e+00 2.2872100094425060e-01