DF-ISE text

Info {
  version = 1.0
  type    = dataset
  dimension   = 3
  nb_vertices = 5293
  nb_edges    = 23303
  nb_faces    = 30690
  nb_elements = 12980
  nb_regions  = 3
  datasets    = [ "ElectrostaticPotential" "ContactExternalVoltage" "ContactCurrentFlux" "ContactCharge" "eQuasiFermiPotential" "hQuasiFermiPotential" "QuasiFermiPotential" "LatticeTemperature" ]
  functions   = [ ElectrostaticPotential ContactExternalVoltage ContactCurrentFlux ContactCharge eQuasiFermiPotential hQuasiFermiPotential QuasiFermiPotential LatticeTemperature ]
}

Data {

  Dataset ("ElectrostaticPotential") {
    function  = ElectrostaticPotential
    type      = scalar
    dimension = 1
    location  = vertex
    validity  = [ "substrate" ]
    Values (5293) {
 -1.4788898531079304e+00 -1.4706715240603652e+00 -1.4788898531079304e+00 -1.4788898531079304e+00 -1.4706720718551647e+00 -1.4706716610049317e+00 -1.4945990319626659e+00 -1.4863815516154293e+00 -1.4555051157643615e+00 -1.4555061870796411e+00
 -1.4555053835771294e+00 -1.4712185521895551e+00 -1.4233567917795864e+00 -1.4233612911108273e+00 -1.4233579160604097e+00 -1.4390828300843399e+00 -1.3748324740864339e+00 -1.3748753811380987e+00 -1.3748430752635050e+00 -1.3905983325401403e+00
 -1.3154032362599053e+00 -1.3157658038922579e+00 -1.3154881462322183e+00 -1.3276645647645202e+00 -1.2760618956839529e+00 -1.2766710205424112e+00 -1.2761903689572573e+00 -1.2818066188677257e+00 -1.2500152428560771e+00 -1.2506860327652236e+00
 -1.2501400657902784e+00 -1.2524199682773458e+00 -1.4788898531079304e+00 -1.4706716610085140e+00 -1.4945990319626659e+00 -1.4863816885535093e+00 -1.4555053835910272e+00 -1.4712188197685105e+00 -1.4233579165036561e+00 -1.4390839437387311e+00
 -1.3748431681678790e+00 -1.3906085651080424e+00 -1.3154922252852961e+00 -1.3277752514442884e+00 -1.2762061311108839e+00 -1.2820203884999029e+00 -1.2501669979771672e+00 -1.2526455752974812e+00 -1.2053467099951505e+00 -1.2055675356826490e+00
 -1.2053688277120209e+00 -1.2056816085558921e+00 -1.2053788471759228e+00 -1.2057205764093604e+00 -1.4788898531079304e+00 -1.4706720718587474e+00 -1.4945990319626659e+00 -1.4863815858514768e+00 -1.4555061870935817e+00 -1.4712186190901615e+00
 -1.4233612916307867e+00 -1.4390831086435916e+00 -1.3748755082532911e+00 -1.3906009308644289e+00 -1.3157717343821225e+00 -1.3276956735964784e+00 -1.2766969905108978e+00 -1.2818813601879753e+00 -1.2507350658806602e+00 -1.2525201091873388e+00
 -1.4945990319626659e+00 -1.4863817227899470e+00 -1.4712188866706126e+00 -1.4390842223344116e+00 -1.3906111733229547e+00 -1.3278072287045797e+00 -1.2821005044820848e+00 -1.2527559826194457e+00 -1.2056327304007006e+00 -1.2057557154123459e+00
 -1.2057985956122821e+00 -1.4788898531079304e+00 -1.4706716610045414e+00 -1.4945990319626659e+00 -1.4863815366905815e+00 -1.4555053835756122e+00 -1.4712185230235011e+00 -1.4233579160078755e+00 -1.4390827086640132e+00 -1.3748430632586575e+00
 -1.3905972227328012e+00 -1.3154875996596971e+00 -1.3276529163329016e+00 -1.2761880503154006e+00 -1.2817814153789933e+00 -1.2501358008755847e+00 -1.2523897314947832e+00 -1.4788898531079304e+00 -1.4706715091346942e+00 -1.4771777477770509e+00
 -1.4689599218368663e+00 -1.4555050865723691e+00 -1.4537935864115481e+00 -1.4233566691977415e+00 -1.4216472798872994e+00 -1.3748313233426286e+00 -1.3731660988927290e+00 -1.3153941888329346e+00 -1.3145736377580599e+00 -1.2760465403182220e+00
 -1.2761314875968410e+00 -1.2499980656912697e+00 -1.2504787549828076e+00 -1.2053649575735068e+00 -1.2056714453302988e+00 -1.2053397366025094e+00 -1.2055441483362519e+00 -1.4945990319626659e+00 -1.4863815709265491e+00 -1.4712185899237999e+00
 -1.4390829872161393e+00 -1.3905998194029117e+00 -1.3276838898618148e+00 -1.2818553209979258e+00 -1.2524882062528797e+00 -1.4771777477770509e+00 -1.4689599137925020e+00 -1.4537935706841834e+00 -1.4216472143156020e+00 -1.3731656231632428e+00
 -1.3145752849641870e+00 -1.2761504860915134e+00 -1.2505202351334850e+00 -1.2057442107016725e+00 -1.2056067922266527e+00 -1.1900418919574238e+00 -1.1900936707063687e+00 -1.1900445393930370e+00 -1.1901021198349544e+00 -1.1900459464593480e+00
 -1.1901062479589006e+00 -1.1835690928806337e+00 -1.1835810882494722e+00 -1.1835693539707814e+00 -1.1835817308595513e+00 -1.1835694575861797e+00 -1.1835820442649647e+00 -1.1901231857560979e+00 -1.1901326425779533e+00 -1.1901373168759430e+00
 -1.1835919600121325e+00 -1.1835926986016436e+00 -1.1835930607698635e+00 -1.1900432637576852e+00 -1.1900998378492629e+00 -1.1900399504302082e+00 -1.1900899190712830e+00 -1.1835690195953326e+00 -1.1835812488549147e+00 -1.1835686090870421e+00
 -1.1835803754394609e+00 -1.1901299856930669e+00 -1.1901188475604747e+00 -1.1835921343177922e+00 -1.1835911266298864e+00 -1.4788898531079304e+00 -1.4706720718587474e+00 -1.4945990319626659e+00 -1.4863815858515517e+00 -1.4555061870935879e+00
 -1.4712186190904484e+00 -1.4233612916421567e+00 -1.4390831086520839e+00 -1.3748755133226496e+00 -1.3906009340828116e+00 -1.3157720081980502e+00 -1.3276959764893737e+00 -1.2766985009525891e+00 -1.2818834633670801e+00 -1.2507384171486187e+00
 -1.2525247537398558e+00 -1.4945990319626659e+00 -1.4863817227900216e+00 -1.4712188866708995e+00 -1.4390842223431033e+00 -1.3906111767189919e+00 -1.3278075507233793e+00 -1.2821027699999308e+00 -1.2527610087624128e+00 -1.2056474049682671e+00
 -1.2057710349333135e+00 -1.2058142543875410e+00 -1.4788898531079304e+00 -1.4706720718587474e+00 -1.4945990319626659e+00 -1.4863815858515517e+00 -1.4555061870935884e+00 -1.4712186190904484e+00 -1.4233612916430405e+00 -1.4390831086522438e+00
 -1.3748755137172664e+00 -1.3906009342250094e+00 -1.3157720296099018e+00 -1.3276959916081641e+00 -1.2766986235472191e+00 -1.2818835877405059e+00 -1.2507387076181173e+00 -1.2525250681051305e+00 -1.4945990319626659e+00 -1.4863817227900216e+00
 -1.4712188866708995e+00 -1.4390842223432669e+00 -1.3906111768647826e+00 -1.3278075662464965e+00 -1.2821028985173279e+00 -1.2527613340948687e+00 -1.2056498621475757e+00 -1.2057735311402014e+00 -1.2058167718533814e+00 -1.4945990319626659e+00
 -1.4863815709266239e+00 -1.4712185899240868e+00 -1.4390829872245847e+00 -1.3905998225795984e+00 -1.3276841883256698e+00 -1.2818573884198501e+00 -1.2524927664384806e+00 -1.4771777477770509e+00 -1.4689599137924643e+00 -1.4537935706840446e+00
 -1.4216472143246532e+00 -1.3731656279367401e+00 -1.3145755339318708e+00 -1.2761518655296313e+00 -1.2505233295202891e+00 -1.2057593264579800e+00 -1.2056211382103186e+00 -1.4945990319626659e+00 -1.4863815709266239e+00 -1.4712185899240868e+00
 -1.4390829872247424e+00 -1.3905998227199803e+00 -1.3276842032482579e+00 -1.2818575111000292e+00 -1.2524930764961484e+00 -1.4771777477770509e+00 -1.4689599137924643e+00 -1.4537935706840450e+00 -1.4216472143256829e+00 -1.3731656283631346e+00
 -1.3145755554590652e+00 -1.2761519849359582e+00 -1.2505236110675733e+00 -1.2057617980090738e+00 -1.2056235584709343e+00 -1.1901338091651801e+00 -1.1901433782176829e+00 -1.1901481108229093e+00 -1.1835973040552550e+00 -1.1835980560029684e+00
 -1.1835984214628237e+00 -1.1901361276288491e+00 -1.1901457058416178e+00 -1.1901504416828483e+00 -1.1835986701395580e+00 -1.1835994232287121e+00 -1.1835997881155593e+00 -1.1901406339620491e+00 -1.1901293421732368e+00 -1.1835974657824577e+00
 -1.1835964334743529e+00 -1.1901429473102914e+00 -1.1901316400763244e+00 -1.1835988278101104e+00 -1.1835977921612886e+00 -1.1806116441966434e+00 -1.1806145915587454e+00 -1.1806116632527432e+00 -1.1806146356557288e+00 -1.1806116552630295e+00
 -1.1806146404872462e+00 -1.1791853740957894e+00 -1.1791860557637541e+00 -1.1791853737580700e+00 -1.1791860564843006e+00 -1.1791853689182799e+00 -1.1791860517953621e+00 -1.1806183210482628e+00 -1.1806183728677224e+00 -1.1806183792429183e+00
 -1.1791871840877068e+00 -1.1791871850707851e+00 -1.1791871798664753e+00 -1.1806115838608846e+00 -1.1806145348757577e+00 -1.1806115311162158e+00 -1.1806144471647442e+00 -1.1791853589436503e+00 -1.1791860392318352e+00 -1.1791853531046987e+00
 -1.1791860312850408e+00 -1.1806182557860239e+00 -1.1806181533083953e+00 -1.1791871653580159e+00 -1.1791871561158715e+00 -1.1783094667689116e+00 -1.1783095600295550e+00 -1.1783094666099432e+00 -1.1783095598792042e+00 -1.1783094661081912e+00
 -1.1783095593486881e+00 -1.1783097541273231e+00 -1.1783097539661107e+00 -1.1783097533791653e+00 -1.1783094654485478e+00 -1.1783095585984353e+00 -1.1783094651256876e+00 -1.1783095582169378e+00 -1.1783097525327400e+00 -1.1783097520986514e+00
 -1.1806205964147807e+00 -1.1806206492418003e+00 -1.1806206545443594e+00 -1.1791880065099662e+00 -1.1791880074459848e+00 -1.1791880018338339e+00 -1.1806212379486443e+00 -1.1806212907963460e+00 -1.1806212956612050e+00 -1.1791882590893887e+00
 -1.1791882599925894e+00 -1.1791882542530361e+00 -1.1806205256944544e+00 -1.1806204194864089e+00 -1.1791879865327322e+00 -1.1791879768378488e+00 -1.1806211657429890e+00 -1.1806210588857247e+00 -1.1791882387597770e+00 -1.1791882289650337e+00
 -1.1783099336671976e+00 -1.1783099334940812e+00 -1.1783099328690632e+00 -1.1783100270208824e+00 -1.1783100268435196e+00 -1.1783100262064998e+00 -1.1783099319719241e+00 -1.1783099315129106e+00 -1.1783100252949528e+00 -1.1783100248292389e+00
 -1.1780264215854350e+00 -1.1780264827409381e+00 -1.1780264215693610e+00 -1.1780264827243205e+00 -1.1780264215271274e+00 -1.1780264826797160e+00 -1.1780266496162144e+00 -1.1780266495982050e+00 -1.1780266495494520e+00 -1.1780264214801865e+00
 -1.1780264826290103e+00 -1.1780264214593090e+00 -1.1780264826061266e+00 -1.1780266494935272e+00 -1.1780266494681511e+00 -1.1776917304480614e+00 -1.1776919644034076e+00 -1.1776917304470231e+00 -1.1776919644023176e+00 -1.1776917304444177e+00
 -1.1776919643995643e+00 -1.1776926313229044e+00 -1.1776926313217111e+00 -1.1776926313186882e+00 -1.1776917304416747e+00 -1.1776919643966415e+00 -1.1776917304404975e+00 -1.1776919643953798e+00 -1.1776926313154676e+00 -1.1776926313140743e+00
 -1.1780268849047233e+00 -1.1780268848856235e+00 -1.1780268848339535e+00 -1.1780271445214801e+00 -1.1780271445020059e+00 -1.1780271444493726e+00 -1.1780268847747193e+00 -1.1780268847478534e+00 -1.1780271443890924e+00 -1.1780271443617685e+00
 -1.1776936317158191e+00 -1.1776936317145468e+00 -1.1776936317113247e+00 -1.1776948157058447e+00 -1.1776948157045473e+00 -1.1776948157012617e+00 -1.1776936317078930e+00 -1.1776936317064086e+00 -1.1776948156977640e+00 -1.1776948156962517e+00
 -1.1765518916952358e+00 -1.1765529603212164e+00 -1.1765518916991833e+00 -1.1765529603251670e+00 -1.1765518917087101e+00 -1.1765529603347014e+00 -1.1765560135464013e+00 -1.1765560135503657e+00 -1.1765560135599329e+00 -1.1765518917182332e+00
 -1.1765529603442311e+00 -1.1765518917221767e+00 -1.1765529603481770e+00 -1.1765560135694950e+00 -1.1765560135734541e+00 -1.1721201582404184e+00 -1.1721249397061155e+00 -1.1721201582947534e+00 -1.1721249397605389e+00 -1.1721201584259331e+00
 -1.1721249398919313e+00 -1.1721386196223993e+00 -1.1721386196771013e+00 -1.1721386198091670e+00 -1.1721201585571175e+00 -1.1721249400233287e+00 -1.1721201586114574e+00 -1.1721249400777567e+00 -1.1721386199412374e+00 -1.1721386199959443e+00
 -1.1765606111115834e+00 -1.1765606111155777e+00 -1.1765606111252171e+00 -1.1765660783728860e+00 -1.1765660783769258e+00 -1.1765660783866749e+00 -1.1765606111348508e+00 -1.1765606111388394e+00 -1.1765660783964182e+00 -1.1765660784004521e+00
 -1.1721592712394850e+00 -1.1721592712946780e+00 -1.1721592714279288e+00 -1.1721839126089684e+00 -1.1721839126648383e+00 -1.1721839127997242e+00 -1.1721592715611842e+00 -1.1721592716163820e+00 -1.1721839129346148e+00 -1.1721839129904896e+00
 -1.4788898531079304e+00 -1.4706720718587474e+00 -1.4945990319626659e+00 -1.4863815858515517e+00 -1.4555061870935879e+00 -1.4712186190904484e+00 -1.4233612916419462e+00 -1.4390831086520524e+00 -1.3748755132287880e+00 -1.3906009340546084e+00
 -1.3157720031113054e+00 -1.3276959734889260e+00 -1.2766984719936707e+00 -1.2818834384923405e+00 -1.2507383485822747e+00 -1.2525246896282733e+00 -1.4945990319626659e+00 -1.4863817227900216e+00 -1.4712188866708995e+00 -1.4390842223430726e+00
 -1.3906111766917122e+00 -1.3278075478161067e+00 -1.2821027456959182e+00 -1.2527609457498645e+00 -1.2056468000984837e+00 -1.2057704313642168e+00 -1.2058136514585367e+00 -1.4788898531079304e+00 -1.4706720718587147e+00 -1.4945990319626659e+00
 -1.4863815858514688e+00 -1.4555061870934543e+00 -1.4712186190901302e+00 -1.4233612916252165e+00 -1.4390831086425748e+00 -1.3748755067240679e+00 -1.3906009304328713e+00 -1.3157716603142384e+00 -1.3276956320127504e+00 -1.2766966323016264e+00
 -1.2818810593322361e+00 -1.2507343232504196e+00 -1.2525194241629691e+00 -1.4945990319626659e+00 -1.4863817227899390e+00 -1.4712188866705813e+00 -1.4390842223334097e+00 -1.3906111729043638e+00 -1.3278071884089147e+00 -1.2821002109482216e+00
 -1.2527553110063927e+00 -1.2056298996148296e+00 -1.2057528944149130e+00 -1.2057957792194982e+00 -1.4945990319626659e+00 -1.4863815709266237e+00 -1.4712185899240868e+00 -1.4390829872245527e+00 -1.3905998225512406e+00 -1.3276841853096961e+00
 -1.2818573634417285e+00 -1.2524927021098899e+00 -1.4771777477770509e+00 -1.4689599137924643e+00 -1.4537935706840444e+00 -1.4216472143243954e+00 -1.3731656278300972e+00 -1.3145755285577394e+00 -1.2761518359936594e+00 -1.2505232602207799e+00
 -1.2057587224574715e+00 -1.2056205326478839e+00 -1.4945990319626659e+00 -1.4863815709265411e+00 -1.4712185899237689e+00 -1.4390829872151201e+00 -1.3905998189693500e+00 -1.3276838480811619e+00 -1.2818550189348157e+00 -1.2524875188432449e+00
 -1.4771777477770509e+00 -1.4689599137924640e+00 -1.4537935706840350e+00 -1.4216472143088832e+00 -1.3731656214153487e+00 -1.3145752063882810e+00 -1.2761501199733940e+00 -1.2505194835150311e+00 -1.2057413874654568e+00 -1.2056039575939781e+00
 -1.1901331205224122e+00 -1.1901426897516669e+00 -1.1901474224342992e+00 -1.1835968100471157e+00 -1.1835975620112009e+00 -1.1835979274677724e+00 -1.1901208636621960e+00 -1.1901303215753531e+00 -1.1901349964259709e+00 -1.1835905943046332e+00
 -1.1835913329921703e+00 -1.1835916951830912e+00 -1.1901399453155204e+00 -1.1901286532667088e+00 -1.1835969717351857e+00 -1.1835959393869901e+00 -1.1901276639724268e+00 -1.1901165243938239e+00 -1.1835907685235565e+00 -1.1835897606568038e+00
 -1.4788898531079304e+00 -1.4706720643919478e+00 -1.4945990319626659e+00 -1.4863815478839357e+00 -1.4555061724821601e+00 -1.4712185448969599e+00 -1.4233612297652452e+00 -1.4390827997041300e+00 -1.3748747925781208e+00 -1.3905980493562120e+00
 -1.3157606628163780e+00 -1.3276611997783392e+00 -1.2766605261415114e+00 -1.2817975903026897e+00 -1.2506720044645541e+00 -1.2524067975194306e+00 -1.4945990319626659e+00 -1.4863816848220710e+00 -1.4712188124761267e+00 -1.4390839133629356e+00
 -1.3906082825959076e+00 -1.3277719256554523e+00 -1.2820114810204033e+00 -1.2526325692793918e+00 -1.2055543876432642e+00 -1.2056685280738491e+00 -1.2057075233961736e+00 -1.4771777477770651e+00 -1.4689592747100366e+00 -1.4771777477770651e+00
 -1.4689594224020075e+00 -1.4537923206558350e+00 -1.4537926095247080e+00 -1.4216419564922704e+00 -1.4216431708197292e+00 -1.3731152673029374e+00 -1.3731267382788397e+00 -1.3141616737002624e+00 -1.3142501354050109e+00 -1.2754518330762317e+00
 -1.2755828462202172e+00 -1.2497333502385461e+00 -1.2498595630281961e+00 -1.4771777477770651e+00 -1.4689594224060731e+00 -1.4537926095405140e+00 -1.4216431713422943e+00 -1.3731268440587419e+00 -1.3142544583458606e+00 -1.2755989692099472e+00
 -1.2498868488140962e+00 -1.2052920112586993e+00 -1.2053142303095019e+00 -1.2053242945434044e+00 -1.4945990319626659e+00 -1.4863815329590804e+00 -1.4712185157308768e+00 -1.4390826782831976e+00 -1.3905969394607096e+00 -1.3276495464358722e+00
 -1.2817723695869183e+00 -1.2523765345608682e+00 -1.4771777477770509e+00 -1.4689599137879550e+00 -1.4537935706664444e+00 -1.4216472136271161e+00 -1.3731654618104370e+00 -1.3145682812276067e+00 -1.2761208116016627e+00 -1.2504646055681459e+00
 -1.2056583553544913e+00 -1.2055309816428750e+00 -1.4771777477770651e+00 -1.4689594224015643e+00 -1.4537926095229818e+00 -1.4216431707575461e+00 -1.3731267245926000e+00 -1.3142495554355920e+00 -1.2755804721019532e+00 -1.2498552370222322e+00
 -1.4771777477770651e+00 -1.4689592586129718e+00 -1.4537922891685864e+00 -1.4216418240909789e+00 -1.3731140218695537e+00 -1.3141522347570533e+00 -1.2754361629797892e+00 -1.2497159664519748e+00 -1.2053103444842417e+00 -1.2052850086196862e+00
 -1.1900870175316849e+00 -1.1900954719657610e+00 -1.1900996028054178e+00 -1.1835781330622142e+00 -1.1835787760755578e+00 -1.1835790896509637e+00 -1.1900272496701738e+00 -1.1900299048027883e+00 -1.1900313159658384e+00 -1.1835643893706493e+00
 -1.1835646510353095e+00 -1.1835647549077901e+00 -1.1900931878281227e+00 -1.1900832625378668e+00 -1.1835782936237345e+00 -1.1835774196008058e+00 -1.1900286260089306e+00 -1.1900253032569730e+00 -1.1835643160483624e+00 -1.1835639046872246e+00
 -1.1806203170768714e+00 -1.1806203699041808e+00 -1.1806203752024824e+00 -1.1791878863671179e+00 -1.1791878873027972e+00 -1.1791878816894146e+00 -1.1806176405720210e+00 -1.1806176923968843e+00 -1.1806176987635473e+00 -1.1791869140910878e+00
 -1.1791869150736178e+00 -1.1791869098663945e+00 -1.1806202463420912e+00 -1.1806201401275913e+00 -1.1791878663865336e+00 -1.1791878566907394e+00 -1.1806175752720167e+00 -1.1806174727707996e+00 -1.1791868953529574e+00 -1.1791868861080776e+00
 -1.1783100063894347e+00 -1.1783100062162755e+00 -1.1783100055911413e+00 -1.1783098824470002e+00 -1.1783098822856959e+00 -1.1783098816984821e+00 -1.1783100046938686e+00 -1.1783100042347940e+00 -1.1783098808517256e+00 -1.1783098804174810e+00
 -1.1806133528455298e+00 -1.1806133969677810e+00 -1.1806134017927661e+00 -1.1791856159878757e+00 -1.1791856167082853e+00 -1.1791856120147166e+00 -1.1806099786573887e+00 -1.1806099977498743e+00 -1.1806099897549593e+00 -1.1791848359887454e+00
 -1.1791848356511523e+00 -1.1791848308058734e+00 -1.1806132960974280e+00 -1.1806132083225664e+00 -1.1791855994411431e+00 -1.1791855914883571e+00 -1.1806099182404606e+00 -1.1806098654092130e+00 -1.1791848208184470e+00 -1.1791848149717312e+00
 -1.1783097179834694e+00 -1.1783097178329849e+00 -1.1783097173020343e+00 -1.1783096320337239e+00 -1.1783096318746034e+00 -1.1783096313723374e+00 -1.1783097165511993e+00 -1.1783097161694138e+00 -1.1783096307119849e+00 -1.1783096303887697e+00
 -1.1780273859709418e+00 -1.1780273859518386e+00 -1.1780273859001607e+00 -1.1780275747626909e+00 -1.1780275747446742e+00 -1.1780275746959021e+00 -1.1780273858409174e+00 -1.1780273858140478e+00 -1.1780275746399564e+00 -1.1780275746145710e+00
 -1.1776960041749913e+00 -1.1776960041737254e+00 -1.1776960041705189e+00 -1.1776970151484698e+00 -1.1776970151472883e+00 -1.1776970151442934e+00 -1.1776960041671032e+00 -1.1776960041656250e+00 -1.1776970151411010e+00 -1.1776970151397192e+00
 -1.1780276904562492e+00 -1.1780276904396205e+00 -1.1780276903949853e+00 -1.1780277282571610e+00 -1.1780277282410736e+00 -1.1780277281988045e+00 -1.1780276903442453e+00 -1.1780276903213460e+00 -1.1780277281518226e+00 -1.1780277281309268e+00
 -1.1776976922598901e+00 -1.1776976922588147e+00 -1.1776976922560962e+00 -1.1776979302808281e+00 -1.1776979302798054e+00 -1.1776979302772372e+00 -1.1776976922532085e+00 -1.1776976922519615e+00 -1.1776979302745314e+00 -1.1776979302733694e+00
 -1.1765715943285100e+00 -1.1765715943326025e+00 -1.1765715943424795e+00 -1.1765763094752619e+00 -1.1765763094794017e+00 -1.1765763094893926e+00 -1.1765715943523505e+00 -1.1765715943564377e+00 -1.1765763094993780e+00 -1.1765763095035127e+00
 -1.1722088671362454e+00 -1.1722088671928546e+00 -1.1722088673295246e+00 -1.1722302753107237e+00 -1.1722302753679317e+00 -1.1722302755060467e+00 -1.1722088674661990e+00 -1.1722088675228128e+00 -1.1722302756441665e+00 -1.1722302757013789e+00
 -1.1765794803115488e+00 -1.1765794803157195e+00 -1.1765794803257845e+00 -1.1765805976601571e+00 -1.1765805976643378e+00 -1.1765805976744279e+00 -1.1765794803358449e+00 -1.1765794803400107e+00 -1.1765805976845145e+00 -1.1765805976886914e+00
 -1.1722447125393953e+00 -1.1722447125969222e+00 -1.1722447127358075e+00 -1.1722498079180843e+00 -1.1722498079756927e+00 -1.1722498081147745e+00 -1.1722447128746971e+00 -1.1722447129322280e+00 -1.1722498082538599e+00 -1.1722498083114723e+00
 -1.1558260763597776e+00 -1.1558455734804218e+00 -1.1558260770679434e+00 -1.1558455741897045e+00 -1.1558260787777292e+00 -1.1558455759021868e+00 -1.1559014718118554e+00 -1.1559014725247565e+00 -1.1559014742459743e+00 -1.1558260804876892e+00
 -1.1558455776148433e+00 -1.1558260811960293e+00 -1.1558455783243002e+00 -1.1559014759673665e+00 -1.1559014766804421e+00 -1.1072688238376849e+00 -1.1073300075354884e+00 -1.1072688324297575e+00 -1.1073300161405752e+00 -1.1072688531771040e+00
 -1.1073300369193426e+00 -1.1075061186654309e+00 -1.1075061273140210e+00 -1.1075061481978186e+00 -1.1072688739305181e+00 -1.1073300577041787e+00 -1.1072688825286601e+00 -1.1073300663153363e+00 -1.1075061690876908e+00 -1.1075061777423576e+00
 -1.1559861897414612e+00 -1.1559861904609707e+00 -1.1559861921981431e+00 -1.1560878104546140e+00 -1.1560878111835862e+00 -1.1560878129436039e+00 -1.1559861939354903e+00 -1.1559861946551746e+00 -1.1560878147037970e+00 -1.1560878154329446e+00
 -1.1077750384597678e+00 -1.1077750471915426e+00 -1.1077750682761782e+00 -1.1081009147224901e+00 -1.1081009235791035e+00 -1.1081009449651429e+00 -1.1077750893669054e+00 -1.1077750981047743e+00 -1.1081009663572987e+00 -1.1081009752200304e+00
 -1.0089592196722654e+00 -1.0090984142064956e+00 -1.0089593174317186e+00 -1.0090985120985319e+00 -1.0089595535877842e+00 -1.0090987485747163e+00 -1.0095021939222706e+00 -1.0095022922795531e+00 -1.0095025298790845e+00 -1.0089597899506177e+00
 -1.0090989852577055e+00 -1.0089598879169828e+00 -1.0090990833566902e+00 -1.0095027676856108e+00 -1.0095028662500314e+00 -8.5318001298959156e-01 -8.5346422225060015e-01 -8.5318112186550343e-01 -8.5346533237069933e-01 -8.5318380379039171e-01
 -8.5346801730047339e-01 -8.5430038431873290e-01 -8.5430149914165598e-01 -8.5430419542926916e-01 -8.5318649277743841e-01 -8.5347070929320235e-01 -8.5318760872510313e-01 -8.5347182648585485e-01 -8.5430689878498378e-01 -8.5430802068560019e-01
 -1.0101279553831917e+00 -1.0101280546907236e+00 -1.0101282945847851e+00 -1.0109018449751075e+00 -1.0109019458049737e+00 -1.0109021893750236e+00 -1.0101285346864370e+00 -1.0101286342017028e+00 -1.0109024331537177e+00 -1.0109025341923707e+00
 -8.5563185748984816e-01 -8.5563298281444666e-01 -8.5563570446949921e-01 -8.5734201175113212e-01 -8.5734315540056649e-01 -8.5734592132528820e-01 -8.5563843321243582e-01 -8.5563956563449195e-01 -8.5734869437963790e-01 -8.5734984516822743e-01
 -6.3568592649612443e-01 -6.3618104106489970e-01 -6.3569835590753665e-01 -6.3619348059050773e-01 -6.3572852551515413e-01 -6.3622367466494667e-01 -6.3767620755434373e-01 -6.3768869067070955e-01 -6.3771899011103339e-01 -6.3575893518261417e-01
 -6.3625410881458599e-01 -6.3577160529015153e-01 -6.3626678905204270e-01 -6.3774952975976273e-01 -6.3776225372072981e-01 -5.0351327074842522e-01 -5.0371837563192201e-01 -5.0357336068326242e-01 -5.0409676377932755e-01 -5.0415687941293297e-01
 -5.0377805789109975e-01 -5.0372053708492348e-01 -5.0430411925597085e-01 -5.0392421209593963e-01 -3.5436581193886063e-01 -3.5460919941075253e-01 -3.5452126424467167e-01 -3.5476462564386435e-01 -3.5498229007034621e-01 -3.5522569104941598e-01
 -3.5521709514376831e-01 -3.5537247098900349e-01 -3.5583364691556191e-01 -5.0489915861969159e-01 -5.0590037869059834e-01 -5.0596064986049361e-01 -5.0495891287382422e-01 -5.0610826650710550e-01 -5.0510524205299911e-01 -3.5578490978379240e-01
 -3.5602841362422882e-01 -3.5695146992992299e-01 -3.5719531845227215e-01 -3.5663662093765114e-01 -3.5780436672381061e-01 -5.0387091754595770e-01 -5.0445456337620498e-01 -5.0407351013544766e-01 -5.0393422767456419e-01 -5.0451789944274306e-01
 -5.0413635191543160e-01 -3.5585720957365463e-01 -3.5601253814046452e-01 -3.5647382575299180e-01 -3.5613310914264329e-01 -3.5628841510711551e-01 -3.5674974364846568e-01 -5.0625908821049548e-01 -5.0525471495281771e-01 -5.0632258057842461e-01
 -5.0531762861611573e-01 -3.5727704387196918e-01 -3.5844563857224654e-01 -3.5755305713149022e-01 -3.5872200430921258e-01 -6.4017992790848899e-01 -6.4019252122345149e-01 -6.4022308716985632e-01 -6.4363264946509691e-01 -6.4364545690457309e-01
 -6.4367654089804871e-01 -6.4025389396888566e-01 -6.4026672877158330e-01 -6.4370786730647711e-01 -6.4372091779350382e-01 -5.0736101524791677e-01 -5.0906115975896138e-01 -5.0912190175104310e-01 -5.0742105336700438e-01 -5.0927066059681958e-01
 -5.0756807061939002e-01 -3.5854403603212265e-01 -3.5878849115111466e-01 -3.6061104911725222e-01 -3.6085657909368857e-01 -3.5939902044284588e-01 -3.6146973841684638e-01 -5.1125934486959701e-01 -5.1372617204945881e-01 -5.1378795225368035e-01
 -5.1132009853202443e-01 -5.1393923243637529e-01 -5.1146885251733165e-01 -3.6323985672690368e-01 -3.6348701104461162e-01 -3.6649872006560352e-01 -3.6674833912754373e-01 -3.6410414564978200e-01 -3.6737151355179820e-01 -5.0942263217631689e-01
 -5.0771823504441493e-01 -5.0948660301817550e-01 -5.0778143600517667e-01 -3.6004179508947382e-01 -3.6211519277148757e-01 -3.6031878899565933e-01 -3.6239331097580230e-01 -5.1409374648252382e-01 -5.1162076677204904e-01 -5.1415877661560605e-01
 -5.1168469633937541e-01 -3.6475365172669300e-01 -3.6802718741489698e-01 -3.6503347034970562e-01 -3.6830959825454834e-01 -1.8717429721557041e-01 -1.8730162978958403e-01 -1.8809025964118128e-01 -1.8821736522960086e-01 -1.8770089513947788e-01
 -1.8861631871795784e-01 -1.9048844211176108e-01 -1.9061531267689735e-01 -1.9101376058914898e-01 3.0183075952060715e-03 3.0340980187940816e-03 2.2849356244005531e-03 3.0066643080188366e-03 1.0880701971203572e-04 2.2994148689695409e-03
 8.7637388947111228e-05 2.2744932925908815e-03 9.5575440582273510e-05 2.9311611930207676e-03 2.2000956164122880e-03 2.8302517272148619e-03 -8.3685646974592575e-05 2.0996371545286101e-03 1.5102586096649224e-05 -3.6036234881272095e-03
 -8.6791728435155879e-03 -3.5917782555667912e-03 -8.6989841761299248e-03 -3.6111094490373320e-03 -8.6896019478534779e-03 -3.6810757599107977e-03 -8.8640740097360934e-03 -3.7791236560694944e-03 -8.7657926994407151e-03 -1.8841353046446849e-01
 -1.8932903552878610e-01 -1.8949441105814011e-01 -1.9041078053803354e-01 -1.9172672034679350e-01 -1.9281061086619314e-01 2.6454312979748563e-03 1.9152798646935860e-03 2.4218780495137639e-03 -4.9046146144881317e-04 1.6916629425999111e-03
 -2.6733377954425149e-04 2.1026560535853250e-03 1.3724375229827706e-03 1.7325301724100523e-03 -1.1816467790084005e-03 1.0017797761892005e-03 -8.1020471863773799e-04 -3.9607825487578902e-03 -9.2674148114504831e-03 -4.1844390006942275e-03
 -9.0423490415126977e-03 -4.5039276860641261e-03 -9.9635700426844980e-03 -4.8779137268306931e-03 -9.5856128247235450e-03 -1.9320441090526655e-01 -1.9333116897489827e-01 -1.9372908806242617e-01 -1.9444342194355976e-01 -1.9457008609435264e-01
 -1.9496767353021163e-01 -1.4802894093816479e-02 -2.0983485554412519e-02 -1.4795282185077922e-02 -2.1007112896061032e-02 -1.4817979769535793e-02 -2.0985402753425676e-02 -1.4879163287582594e-02 -2.1164960438123666e-02 -1.4980179440250534e-02
 -2.1059826140383622e-02 -2.5760608449223059e-02 -2.7607661990209763e-02 -2.5764777804607512e-02 -2.7631052878799491e-02 -2.5788496384691311e-02 -2.7600438594421614e-02 -2.5832870458486763e-02 -2.7782825105234419e-02 -2.5942314441558596e-02
 -2.7671324434392765e-02 -1.9444218311880568e-01 -1.9552824395422452e-01 -1.9568073897671329e-01 -1.9676768581917711e-01 -1.5152007075874547e-02 -2.1562499779541042e-02 -1.5380999275955791e-02 -2.1327930069062931e-02 -1.5695156831639093e-02
 -2.2263667200991346e-02 -1.6080015784139270e-02 -2.1870316215426251e-02 -2.6096845975675340e-02 -2.8176214937034122e-02 -2.6337024976535024e-02 -2.7933368435933584e-02 -2.6638417638423929e-02 -2.8879158554234254e-02 -2.7039614218439166e-02
 -2.8474446619784675e-02 1.1314641834662346e-01 1.1232547194579255e-01 1.1306189713712479e-01 1.1221210766780194e-01 1.1324767363754321e-01 1.1244500590592160e-01 1.0931690631137601e-01 1.0944877300674545e-01 1.0958878876711534e-01
 2.3372820958335633e-01 2.3429224371327353e-01 2.3390887077668401e-01 2.3507460071475703e-01 2.3464148159780879e-01 2.3559644797049409e-01 2.3283929270709228e-01 2.3419207637651687e-01 2.3485118545320918e-01 1.1329554885643589e-01
 1.1250066688863528e-01 1.1328259890765863e-01 1.1249084776109233e-01 1.0965633814922242e-01 1.0965260122381684e-01 2.3478063573318300e-01 2.3577264302667220e-01 2.3482236936877596e-01 2.3582217221428112e-01 2.3507065669514027e-01
 2.3513265811412506e-01 1.0383841219674680e-01 1.0370117372767147e-01 1.0398699619821632e-01 9.4336265243802328e-02 9.4461943210530155e-02 9.4603670444194043e-02 2.2934335684466328e-01 2.3075074134866735e-01 2.3145600343920569e-01
 2.2005890018343791e-01 2.2138168362450233e-01 2.2204462517410076e-01 1.0406241843612331e-01 1.0406454483524692e-01 9.4681691031828913e-02 9.4689553032077142e-02 2.3169889650651310e-01 2.3177187372262029e-01 2.2229427925214165e-01
 2.2238084175948700e-01 2.6944976324466452e-01 2.7036830593264333e-01 2.7018997613716722e-01 2.7400708386181044e-01 3.1430871044101621e-01 3.1521819752388469e-01 3.1518614539016254e-01 3.2561635046316895e-01 3.7480346857210994e-01
 3.7495421368227944e-01 3.7495362379967723e-01 3.8985872885157014e-01 4.2334368957761109e-01 4.2336084417489162e-01 4.2336084285326891e-01 4.3840749704918625e-01 2.7065399318669936e-01 2.7460985351262868e-01 3.1532384852034662e-01
 3.2600620693502153e-01 3.7495716768671472e-01 3.8989983905937264e-01 4.2336086547867813e-01 4.3841207675783089e-01 2.6980615432559318e-01 2.7397576344035252e-01 3.1517274633419701e-01 3.2592279708879562e-01 3.7495439534537900e-01