DF-ISE text

Info {
  version = 1.0
  type    = dataset
  dimension   = 3
  nb_vertices = 5293
  nb_edges    = 23303
  nb_faces    = 30690
  nb_elements = 12980
  nb_regions  = 3
  datasets    = [ "ElectrostaticPotential" "ContactExternalVoltage" "ContactCurrentFlux" "ContactCharge" "eQuasiFermiPotential" "hQuasiFermiPotential" "QuasiFermiPotential" "LatticeTemperature" ]
  functions   = [ ElectrostaticPotential ContactExternalVoltage ContactCurrentFlux ContactCharge eQuasiFermiPotential hQuasiFermiPotential QuasiFermiPotential LatticeTemperature ]
}

Data {

  Dataset ("ElectrostaticPotential") {
    function  = ElectrostaticPotential
    type      = scalar
    dimension = 1
    location  = vertex
    validity  = [ "substrate" ]
    Values (5293) {
 -3.7537888985310792e+02 -3.7537067152402511e+02 -3.7537888985310792e+02 -3.7537888985310792e+02 -3.7537067207182662e+02 -3.7537067166097080e+02 -3.7539459903196263e+02 -3.7538638155161482e+02 -3.7535550492726816e+02 -3.7535550603423394e+02
 -3.7535550520092994e+02 -3.7537121854662558e+02 -3.7532301035623965e+02 -3.7532308034744847e+02 -3.7532302222287393e+02 -3.7533906239800996e+02 -3.7512134204174782e+02 -3.7515016924078270e+02 -3.7512606376482182e+02 -3.7527241223563487e+02
 -3.7372484839616311e+02 -3.7377252262685391e+02 -3.7373176387555242e+02 -3.7389037523698067e+02 -3.7226008815399467e+02 -3.7231486273671379e+02 -3.7226694510296960e+02 -3.7238600444965164e+02 -3.7079090200376118e+02 -3.7084713977909752e+02
 -3.7079687314077410e+02 -3.7088369439468988e+02 -3.7537888985310792e+02 -3.7537067166097455e+02 -3.7539459903196263e+02 -3.7538638168855289e+02 -3.7535550520179066e+02 -3.7537121881430301e+02 -3.7532302377954522e+02 -3.7533906386424388e+02
 -3.7512674825735155e+02 -3.7527271941797392e+02 -3.7373307833580799e+02 -3.7389792829746006e+02 -3.7226861007275846e+02 -3.7239522428450448e+02 -3.7079867724742923e+02 -3.7089237585996460e+02 -3.5893828215268667e+02 -3.5895583205170578e+02
 -3.5893900631561155e+02 -3.5895852910274539e+02 -3.5893905185202789e+02 -3.5895922254727884e+02 -3.7537888985310792e+02 -3.7537067207183094e+02 -3.7539459903196263e+02 -3.7538638158585087e+02 -3.7535550603828312e+02 -3.7537121861358833e+02
 -3.7532308776453613e+02 -3.7533906290193607e+02 -3.7515344097057886e+02 -3.7527260998249085e+02 -3.7377983576780457e+02 -3.7389762072499997e+02 -3.7232568657561910e+02 -3.7239801091597462e+02 -3.7086077357393964e+02 -3.7089899261635139e+02
 -3.7539459903196263e+02 -3.7538638172278934e+02 -3.7537121888126637e+02 -3.7533906436511091e+02 -3.7527291490212201e+02 -3.7390538586703479e+02 -3.7240763369912014e+02 -3.7090820495080294e+02 -3.5896648537190754e+02 -3.5896942218100389e+02
 -3.5897015831195074e+02 -3.7537888985310792e+02 -3.7537067166097023e+02 -3.7539459903196263e+02 -3.7538638153668995e+02 -3.7535550519992233e+02 -3.7537121851740335e+02 -3.7532302037380174e+02 -3.7533906207708498e+02 -3.7512525051695530e+02
 -3.7527224395924810e+02 -3.7373014380773822e+02 -3.7388595409798819e+02 -3.7226468759364940e+02 -3.7237959252387054e+02 -3.7079415194017486e+02 -3.7087640682592991e+02 -3.7537888985310792e+02 -3.7537067150909877e+02 -3.7537717774777701e+02
 -3.7536895992178404e+02 -3.7535550489440141e+02 -3.7535379332363362e+02 -3.7532300348325970e+02 -3.7532119938308068e+02 -3.7511837852409246e+02 -3.7508943302077785e+02 -3.7372029874138252e+02 -3.7372687932522706e+02 -3.7225487034022211e+02
 -3.7228332049565796e+02 -3.7078546863132641e+02 -3.7082629269857023e+02 -3.5893769243485571e+02 -3.5895625883026435e+02 -3.5893625996052754e+02 -3.5895197226184422e+02 -3.7539459903196263e+02 -3.7538638157092589e+02 -3.7537121858436365e+02
 -3.7533906257316153e+02 -3.7527243477080810e+02 -3.7389282975858504e+02 -3.7239094892891944e+02 -3.7089085322565637e+02 -3.7537717774777701e+02 -3.7536895991374041e+02 -3.7535379331147050e+02 -3.7532120539411153e+02 -3.7509190330449042e+02
 -3.7373265608287636e+02 -3.7229232219844681e+02 -3.7083802855725241e+02 -3.5896679640130765e+02 -3.5896205545992177e+02 -3.4702991599586818e+02 -3.4703499129057673e+02 -3.4702995521797124e+02 -3.4703515474160071e+02 -3.4702985167652656e+02
 -3.4703507960754388e+02 -3.3509623226127326e+02 -3.3509782436884814e+02 -3.3509622291575153e+02 -3.3509782151123903e+02 -3.3509617831120227e+02 -3.3509777347021054e+02 -3.4704023192616773e+02 -3.4704041426332924e+02 -3.4704032397255730e+02
 -3.3510011686747191e+02 -3.3510011378583152e+02 -3.3510005889281075e+02 -3.4702953916421507e+02 -3.4703457786158469e+02 -3.4702931369044529e+02 -3.4703413517900003e+02 -3.3509610713429242e+02 -3.3509767957989396e+02 -3.3509606744389470e+02
 -3.3509762113174372e+02 -3.4703974440814949e+02 -3.4703923896206982e+02 -3.3509995070763767e+02 -3.3509988333402976e+02 -3.7537888985310792e+02 -3.7537067207183105e+02 -3.7539459903196263e+02 -3.7538638158585093e+02 -3.7535550603905972e+02
 -3.7537121861359583e+02 -3.7532308919199664e+02 -3.7533906292827396e+02 -3.7515407086071565e+02 -3.7527263334796271e+02 -3.7378129468570296e+02 -3.7389873422275832e+02 -3.7232794614062971e+02 -3.7240011348846804e+02 -3.7086375041318695e+02
 -3.7090194947852103e+02 -3.7539459903196263e+02 -3.7538638172278945e+02 -3.7537121888127342e+02 -3.7533906438978664e+02 -3.7527293687572791e+02 -3.7390648238912212e+02 -3.7240972095283053e+02 -3.7091115340311489e+02 -3.5897075625889573e+02
 -3.5897370225018960e+02 -3.5897442073981682e+02 -3.7537888985310792e+02 -3.7537067207183105e+02 -3.7539459903196263e+02 -3.7538638158585093e+02 -3.7535550603915749e+02 -3.7537121861359668e+02 -3.7532308937173957e+02 -3.7533906293147533e+02
 -3.7515415017885982e+02 -3.7527263618828948e+02 -3.7378147910308581e+02 -3.7389886963552857e+02 -3.7232823323584466e+02 -3.7240037171587522e+02 -3.7086413081766818e+02 -3.7090231624183855e+02 -3.7539459903196263e+02 -3.7538638172278945e+02
 -3.7537121888127422e+02 -3.7533906439273238e+02 -3.7527293949963007e+02 -3.7390661353442050e+02 -3.7240997335286278e+02 -3.7091151385459273e+02 -3.5897134585005529e+02 -3.5897429049869538e+02 -3.5897500375210302e+02 -3.7539459903196263e+02
 -3.7538638157092601e+02 -3.7537121858437092e+02 -3.7533906259880200e+02 -3.7527245750171204e+02 -3.7389390145702419e+02 -3.7239297156536281e+02 -3.7089369815900687e+02 -3.7537717774777701e+02 -3.7536895991374053e+02 -3.7535379331243001e+02
 -3.7532120702982456e+02 -3.7509256787437266e+02 -3.7373405563247564e+02 -3.7229444834229668e+02 -3.7084081571505408e+02 -3.5897099206121993e+02 -3.5896620132550436e+02 -3.7539459903196263e+02 -3.7538638157092601e+02 -3.7537121858437177e+02
 -3.7533906260193754e+02 -3.7527246028128320e+02 -3.7389403238391600e+02 -3.7239322096463690e+02 -3.7089405224994152e+02 -3.7537717774777701e+02 -3.7536895991374053e+02 -3.7535379331255535e+02 -3.7532120724344321e+02 -3.7509265466591484e+02
 -3.7373423745301494e+02 -3.7229472412550876e+02 -3.7084117757432989e+02 -3.5897156573165705e+02 -3.5896676994188067e+02 -3.4704302226593126e+02 -3.4704320364520714e+02 -3.4704310296128739e+02 -3.3510151992941377e+02 -3.3510151580319655e+02
 -3.3510145720758482e+02 -3.4704327670356264e+02 -3.4704345730550068e+02 -3.4704335390962541e+02 -3.3510147514546298e+02 -3.3510147066954897e+02 -3.3510141106950203e+02 -3.4704250297846681e+02 -3.4704198509749637e+02 -3.3510134378336818e+02
 -3.3510127369217429e+02 -3.4704275004344851e+02 -3.4704223015328461e+02 -3.3510129642084661e+02 -3.3510122574993250e+02 -3.2314458585685179e+02 -3.2314512669808511e+02 -3.2314458123983627e+02 -3.2314512211666818e+02 -3.2314456769872396e+02
 -3.2314510724787988e+02 -3.1117704147990315e+02 -3.1117721731204551e+02 -3.1117704028047797e+02 -3.1117721604664843e+02 -3.1117703719475190e+02 -3.1117721272312792e+02 -3.2314606267973323e+02 -3.2314605759231068e+02 -3.2314604087094870e+02
 -3.1117754939687256e+02 -3.1117754800536483e+02 -3.1117754433200264e+02 -3.2314455104942766e+02 -3.2314508762974287e+02 -3.2314454308197469e+02 -3.2314507776832414e+02 -3.1117703385153396e+02 -3.1117720904255032e+02 -3.1117703238392914e+02
 -3.1117720739963698e+02 -3.2314601859523196e+02 -3.2314600734474891e+02 -3.1117754024082660e+02 -3.1117753840776300e+02 -2.8719636681309947e+02 -2.8719640044514495e+02 -2.8719636669414314e+02 -2.8719640032036301e+02 -2.8719636640098355e+02
 -2.8719640001137770e+02 -2.8719646602635459e+02 -2.8719646589122385e+02 -2.8719646555598126e+02 -2.8719636609950612e+02 -2.8719639969171101e+02 -2.8719636597201838e+02 -2.8719639955591430e+02 -2.8719646520830565e+02 -2.8719646506035707e+02
 -3.2314664522968843e+02 -3.2314663977101276e+02 -3.2314662200261540e+02 -3.1117772497992684e+02 -3.1117772350288368e+02 -3.1117771960969208e+02 -3.2314646377289455e+02 -3.2314645819842838e+02 -3.2314644012605055e+02 -3.1117752342892595e+02
 -3.1117752192427616e+02 -3.1117751796193215e+02 -3.2314659847678882e+02 -3.2314658664116877e+02 -3.1117771528031716e+02 -3.1117771334279314e+02 -3.2314641626241649e+02 -3.2314640427614813e+02 -3.1117751355990708e+02 -3.1117751159121491e+02
 -2.8719649162531169e+02 -2.8719649148269860e+02 -2.8719649112894717e+02 -2.8719641788483284e+02 -2.8719641773964577e+02 -2.8719641737958506e+02 -2.8719649076214154e+02 -2.8719649060607935e+02 -2.8719641700633696e+02 -2.8719641684756624e+02
 -2.6315601390323292e+02 -2.6315604678125771e+02 -2.6315601389206307e+02 -2.6315604676967394e+02 -2.6315601386486946e+02 -2.6315604674144834e+02 -2.6315613391566728e+02 -2.6315613390330662e+02 -2.6315613387317063e+02 -2.6315601383731627e+02
 -2.6315604671280562e+02 -2.6315601382574499e+02 -2.6315604670076908e+02 -2.6315613384256824e+02 -2.6315613382970525e+02 -2.3905598527452307e+02 -2.3905606341038461e+02 -2.3905598527344262e+02 -2.3905606340927375e+02 -2.3905598527078385e+02
 -2.3905606340654819e+02 -2.3905628455388469e+02 -2.3905628455271651e+02 -2.3905628454985234e+02 -2.3905598526801157e+02 -2.3905606340370642e+02 -2.3905598526677628e+02 -2.3905606340244532e+02 -2.3905628454687047e+02 -2.3905628454555128e+02
 -2.6315624719870090e+02 -2.6315624718573139e+02 -2.6315624715411144e+02 -2.6315635506631588e+02 -2.6315635505311445e+02 -2.6315635502093033e+02 -2.6315624712200525e+02 -2.6315624710851364e+02 -2.6315635498825475e+02 -2.6315635497452604e+02
 -2.3905661179664997e+02 -2.3905661179543151e+02 -2.3905661179244547e+02 -2.3905699211086110e+02 -2.3905699210961151e+02 -2.3905699210654933e+02 -2.3905661178934133e+02 -2.3905661178797160e+02 -2.3905699210336846e+02 -2.3905699210196704e+02
 -2.1489591848263484e+02 -2.1489609493360621e+02 -2.1489591848260554e+02 -2.1489609493357278e+02 -2.1489591848248898e+02 -2.1489609493345355e+02 -2.1489659772150952e+02 -2.1489659772147121e+02 -2.1489659772134084e+02 -2.1489591848226414e+02
 -2.1489609493322436e+02 -2.1489591848208258e+02 -2.1489609493304411e+02 -2.1489659772110042e+02 -2.1489659772091588e+02 -1.9067502691427333e+02 -1.9067540794049557e+02 -1.9067502691581231e+02 -1.9067540794203268e+02 -1.9067502691948144e+02
 -1.9067540794570419e+02 -1.9067649561073475e+02 -1.9067649561227060e+02 -1.9067649561593984e+02 -1.9067502692304004e+02 -1.9067540794926327e+02 -1.9067502692442181e+02 -1.9067540795064818e+02 -1.9067649561949654e+02 -1.9067649562088079e+02
 -2.1489735103689750e+02 -2.1489735103685209e+02 -2.1489735103670461e+02 -2.1489824095624380e+02 -2.1489824095618269e+02 -2.1489824095599641e+02 -2.1489735103644725e+02 -2.1489735103625600e+02 -2.1489824095569978e+02 -2.1489824095549241e+02
 -1.9067813069308411e+02 -1.9067813069461303e+02 -1.9067813069826539e+02 -1.9068007079882975e+02 -1.9068007080033402e+02 -1.9068007080392613e+02 -1.9067813070180551e+02 -1.9067813070318323e+02 -1.9068007080740551e+02 -1.9068007080875827e+02
 -3.7537888985310792e+02 -3.7537067207183105e+02 -3.7539459903196263e+02 -3.7538638158585093e+02 -3.7535550603887117e+02 -3.7537121861359412e+02 -3.7532308884545728e+02 -3.7533906292209008e+02 -3.7515391793178543e+02 -3.7527262786111663e+02
 -3.7378093602685766e+02 -3.7389847251434759e+02 -3.7232737839193544e+02 -3.7239960727496577e+02 -3.7086297909438048e+02 -3.7090121345939104e+02 -3.7539459903196263e+02 -3.7538638172278945e+02 -3.7537121888127183e+02 -3.7533906438407877e+02
 -3.7527293179146966e+02 -3.7390622817305342e+02 -3.7240922460319121e+02 -3.7091042756805200e+02 -3.5896880922682635e+02 -3.5897175857418677e+02 -3.5897247839608525e+02 -3.7537888985310792e+02 -3.7537067207183077e+02 -3.7539459903196263e+02
 -3.7538638158585081e+02 -3.7535550603759754e+02 -3.7537121861358236e+02 -3.7532308650467428e+02 -3.7533906288022263e+02 -3.7515288508383946e+02 -3.7527259072097462e+02 -3.7377855788244671e+02 -3.7389670528630251e+02 -3.7232370553358061e+02
 -3.7239626440863702e+02 -3.7085814347649102e+02 -3.7089649963940622e+02 -3.7539459903196263e+02 -3.7538638172278934e+02 -3.7537121888126092e+02 -3.7533906434516115e+02 -3.7527289713334244e+02 -3.7390449933244003e+02 -3.7240592562026870e+02
 -3.7090575193249470e+02 -3.5896149845404051e+02 -3.5896444804811904e+02 -3.5896518962110929e+02 -3.7539459903196263e+02 -3.7538638157092601e+02 -3.7537121858436922e+02 -3.7533906259247124e+02 -3.7527245189006902e+02 -3.7389363728708196e+02
 -3.7239246155413480e+02 -3.7089295756741041e+02 -3.7537717774777701e+02 -3.7536895991374053e+02 -3.7535379331217086e+02 -3.7532120658809464e+02 -3.7509238839895920e+02 -3.7373367693841794e+02 -3.7229386536254083e+02 -3.7084003290651441e+02
 -3.5896904644641819e+02 -3.5896425119424015e+02 -3.7539459903196263e+02 -3.7538638157092589e+02 -3.7537121858435756e+02 -3.7533906255093331e+02 -3.7527241507228422e+02 -3.7389190581083221e+02 -3.7238918943552471e+02 -3.7088834478235083e+02
 -3.7537717774777701e+02 -3.7536895991374018e+02 -3.7535379331053122e+02 -3.7532120379346713e+02 -3.7509125308001546e+02 -3.7373130679330012e+02 -3.7229028724817857e+02 -3.7083535843564277e+02 -3.5896181656524874e+02 -3.5895705921586261e+02
 -3.4704096552582627e+02 -3.4704114718841475e+02 -3.4704104652565229e+02 -3.3509982276446107e+02 -3.3509981864884310e+02 -3.3509976001064172e+02 -3.4703564689629167e+02 -3.4703583031515251e+02 -3.4703574031270108e+02 -3.3509662743563524e+02
 -3.3509662441458408e+02 -3.3509656944718347e+02 -3.4704044592848987e+02 -3.4703992749331832e+02 -3.3509964646554448e+02 -3.3509957629428101e+02 -3.4703515890030110e+02 -3.4703465164087686e+02 -3.3509646094219733e+02 -3.3509639333894614e+02
 -3.7537888985310792e+02 -3.7537067206436262e+02 -3.7539459903196263e+02 -3.7538638154788327e+02 -3.7535550601568241e+02 -3.7537121853929500e+02 -3.7532307302041249e+02 -3.7533906223046046e+02 -3.7514696730273801e+02 -3.7527229355174188e+02
 -3.7376622005790188e+02 -3.7388597329177895e+02 -3.7230612964261479e+02 -3.7237838773541887e+02 -3.7083651283186731e+02 -3.7087362759480197e+02 -3.7539459903196263e+02 -3.7538638168482146e+02 -3.7537121880697532e+02 -3.7533906370616779e+02
 -3.7527260871348420e+02 -3.7389365253381953e+02 -3.7238776114153512e+02 -3.7088245480534397e+02 -3.5894494425993508e+02 -3.5894768254419796e+02 -3.5894839315497097e+02 -3.7537717774777707e+02 -3.7536895927464394e+02 -3.7537717774777707e+02
 -3.7536895942233741e+02 -3.7535379199202833e+02 -3.7535379228819340e+02 -3.7532108188857359e+02 -3.7532109552711421e+02 -3.7504404321920214e+02 -3.7504905750641308e+02 -3.7365542938665266e+02 -3.7366258968855686e+02 -3.7220132496072307e+02
 -3.7220836968100508e+02 -3.7074132595239064e+02 -3.7074743070203721e+02 -3.7537717774777707e+02 -3.7536895942234162e+02 -3.7535379228928178e+02 -3.7532109735547959e+02 -3.7504979623983337e+02 -3.7366395966916053e+02 -3.7221008737996760e+02
 -3.7074928248329951e+02 -3.5891783066891202e+02 -3.5891856994113181e+02 -3.5891862155512723e+02 -3.7539459903196263e+02 -3.7538638153295841e+02 -3.7537121851007208e+02 -3.7533906190723150e+02 -3.7527212333123856e+02 -3.7388152505773746e+02
 -3.7237193759103587e+02 -3.7086629739937501e+02 -3.7537717774777701e+02 -3.7536895991373405e+02 -3.7535379330267301e+02 -3.7532119042970146e+02 -3.7508582683793338e+02 -3.7372029882366996e+02 -3.7227439860175247e+02 -3.7081554361858332e+02
 -3.5894540010324852e+02 -3.5894106359591217e+02 -3.7537717774777707e+02 -3.7536895942233656e+02 -3.7535379228693392e+02 -3.7532109338391717e+02 -3.7504819138032008e+02 -3.7366092115954740e+02 -3.7220606838215468e+02 -3.7074467039408722e+02
 -3.7537717774777707e+02 -3.7536895925854577e+02 -3.7535379195602997e+02 -3.7532107407263908e+02 -3.7504094417683166e+02 -3.7365076805967163e+02 -3.7219601662371451e+02 -3.7073582043789617e+02 -3.5891724472751349e+02 -3.5891579106747804e+02
 -3.4702717560742951e+02 -3.4702734208342588e+02 -3.4702726808557185e+02 -3.3509258543081233e+02 -3.3509258275336958e+02 -3.3509253464591495e+02 -3.4701934082404279e+02 -3.4701938140577636e+02 -3.4701927799671057e+02 -3.3509000354976979e+02
 -3.3508999426986600e+02 -3.3508994950116687e+02 -3.4702676234318449e+02 -3.4702631523099160e+02 -3.3509244016443455e+02 -3.3509238124961126e+02 -3.4701896247637950e+02 -3.4701873434034616e+02 -3.3508987778371898e+02 -3.3508983771973732e+02
 -3.2314540265704522e+02 -3.2314539719440717e+02 -3.2314537940927852e+02 -3.1117688896508236e+02 -3.1117688748652807e+02 -3.1117688358912045e+02 -3.2314362560067673e+02 -3.2314362050768494e+02 -3.2314360375136147e+02 -3.1117595649594034e+02
 -3.1117595510133657e+02 -3.1117595141887767e+02 -3.2314535585766180e+02 -3.2314534400826784e+02 -3.1117687925477094e+02 -3.1117687731494323e+02 -3.2314358141402192e+02 -3.2314357012866361e+02 -3.1117594731643391e+02 -3.1117594547795233e+02
 -2.8719623137612115e+02 -2.8719623123328921e+02 -2.8719623087898401e+02 -2.8719597750584893e+02 -2.8719597737015016e+02 -2.8719597703342663e+02 -2.8719623051158953e+02 -2.8719623035527081e+02 -2.8719597668409045e+02 -2.8719597653534714e+02
 -3.2314170333196432e+02 -3.2314169874770329e+02 -3.2314168382835771e+02 -3.1117506220854216e+02 -3.1117506093844980e+02 -3.1117505760034453e+02 -3.2314072353658571e+02 -3.2314071890635711e+02 -3.2314070529914642e+02 -3.1117466775109352e+02
 -3.1117466654496673e+02 -3.1117466343892551e+02 -3.2314166410696754e+02 -3.2314165418293612e+02 -3.1117505390048763e+02 -3.1117505224725051e+02 -3.2314068853700388e+02 -3.2314068049916415e+02 -3.1117466006630372e+02 -3.1117465857555425e+02
 -2.8719575125037613e+02 -2.8719575112429169e+02 -2.8719575081169643e+02 -2.8719565868463775e+02 -2.8719565856316359e+02 -2.8719565826212630e+02 -2.8719575048731900e+02 -2.8719575034840398e+02 -2.8719565794671450e+02 -2.8719565780307636e+02
 -2.6315643481074670e+02 -2.6315643479769687e+02 -2.6315643476587405e+02 -2.6315647940612212e+02 -2.6315647939347014e+02 -2.6315647936256465e+02 -2.6315643473355311e+02 -2.6315643471996714e+02 -2.6315647933107334e+02 -2.6315647931775368e+02
 -2.3905736620713716e+02 -2.3905736620585100e+02 -2.3905736620269320e+02 -2.3905767835328791e+02 -2.3905767835185370e+02 -2.3905767834828168e+02 -2.3905736619940618e+02 -2.3905736619795562e+02 -2.3905767834447454e+02 -2.3905767834272550e+02
 -2.6315649657809678e+02 -2.6315649656559714e+02 -2.6315649653476925e+02 -2.6315649999742669e+02 -2.6315649998417388e+02 -2.6315649995021391e+02 -2.6315649650252209e+02 -2.6315649648783671e+02 -2.6315649990983337e+02 -2.6315649988204160e+02
 -2.3905788426772409e+02 -2.3905788426573233e+02 -2.3905788426049043e+02 -2.3905795604817962e+02 -2.3905795604505491e+02 -2.3905795603571767e+02 -2.3905788425413007e+02 -2.3905788425023687e+02 -2.3905795602011347e+02 -2.3905795600206636e+02
 -2.1489913233436340e+02 -2.1489913233424875e+02 -2.1489913233392573e+02 -2.1489988916286421e+02 -2.1489988916255689e+02 -2.1489988916171112e+02 -2.1489913233348184e+02 -2.1489913233320829e+02 -2.1489988916063791e+02 -2.1489988916002054e+02
 -1.9068202349414366e+02 -1.9068202349557257e+02 -1.9068202349897510e+02 -1.9068368898036840e+02 -1.9068368898157161e+02 -1.9068368898437097e+02 -1.9068202350225437e+02 -1.9068202350351916e+02 -1.9068368898694069e+02 -1.9068368898782825e+02
 -2.1490039544956392e+02 -2.1490039544864547e+02 -2.1490039544599912e+02 -2.1490057334306746e+02 -2.1490057334098904e+02 -2.1490057333417641e+02 -2.1490039544223833e+02 -2.1490039543940190e+02 -2.1490057332101139e+02 -2.1490057330335077e+02
 -1.9068480706735366e+02 -1.9068480706791277e+02 -1.9068480706883187e+02 -1.9068520069426134e+02 -1.9068520069364592e+02 -1.9068520069035966e+02 -1.9068480706863227e+02 -1.9068480706724932e+02 -1.9068520068063359e+02 -1.9068520066373739e+02
 -1.6639167385845408e+02 -1.6639248109366997e+02 -1.6639167387675761e+02 -1.6639248111197821e+02 -1.6639167392090076e+02 -1.6639248115613964e+02 -1.6639479057390315e+02 -1.6639479059221910e+02 -1.6639479063639976e+02 -1.6639167396493352e+02
 -1.6639248120018837e+02 -1.6639167398307700e+02 -1.6639248121834112e+02 -1.6639479068046774e+02 -1.6639479069862881e+02 -1.4204244904794638e+02 -1.4204413139364075e+02 -1.4204244925525524e+02 -1.4204413160106785e+02 -1.4204244975575938e+02
 -1.4204413210186402e+02 -1.4204896396701935e+02 -1.4204896417467774e+02 -1.4204896467603319e+02 -1.4204245025623931e+02 -1.4204413260263365e+02 -1.4204245046347128e+02 -1.4204413280998807e+02 -1.4204896517736245e+02 -1.4204896538494916e+02
 -1.6639827697830427e+02 -1.6639827699659327e+02 -1.6639827704070885e+02 -1.6640243700657558e+02 -1.6640243702473916e+02 -1.6640243706855111e+02 -1.6639827708471196e+02 -1.6639827710284649e+02 -1.6640243711225020e+02 -1.6640243713025902e+02
 -1.4205631489555137e+02 -1.4205631510316252e+02 -1.4205631560440415e+02 -1.4206517662046627e+02 -1.4206517682704163e+02 -1.4206517732578175e+02 -1.4205631610562014e+02 -1.4205631631316041e+02 -1.4206517782449578e+02 -1.4206517803099993e+02
 -1.1762034549186593e+02 -1.1762376079906403e+02 -1.1762034782998326e+02 -1.1762376313904423e+02 -1.1762035347682745e+02 -1.1762376879039816e+02 -1.1763364394833242e+02 -1.1763364629248964e+02 -1.1763365195393855e+02 -1.1762035912665846e+02
 -1.1762377444474451e+02 -1.1762036146770701e+02 -1.1762377678766801e+02 -1.1763365761839414e+02 -1.1763365996550955e+02 -9.3111431253275342e+01 -9.3118030551674721e+01 -9.3111457587399656e+01 -9.3118056912445553e+01 -9.3111521237121764e+01
 -9.3118120626743377e+01 -9.3137385351331389e+01 -9.3137411775873261e+01 -9.3137475644501237e+01 -9.3111584992133302e+01 -9.3118184446658361e+01 -9.3111611431510113e+01 -9.3118210913014721e+01 -9.3137539619265937e+01 -9.3137566149912757e+01
 -1.1764888963764695e+02 -1.1764889198412790e+02 -1.1764889765119516e+02 -1.1766762458179072e+02 -1.1766762692045039e+02 -1.1766763256863688e+02 -1.1764890332128117e+02 -1.1764890567073259e+02 -1.1766763821984496e+02 -1.1766764056147805e+02
 -9.3168018868066284e+01 -9.3168045352112031e+01 -9.3168109364698807e+01 -9.3207029395850995e+01 -9.3207055846239257e+01 -9.3207119777766366e+01 -9.3168173483847752e+01 -9.3168200074423950e+01 -9.3207183816125337e+01 -9.3207210373314197e+01
 -6.8489466470964885e+01 -6.8501021290072956e+01 -6.8489762230304592e+01 -6.8501317411460747e+01 -6.8490478731985405e+01 -6.8502034796838743e+01 -6.8535752836293781e+01 -6.8536049838343089e+01 -6.8536769363415544e+01 -6.8491198811387662e+01
 -6.8502755773083337e+01 -6.8491498149871461e+01 -6.8503055486692503e+01 -6.8537492498152574e+01 -6.8537793111166209e+01 -5.6119568369374100e+01 -5.6123266139710353e+01 -5.6121005883450849e+01 -5.6133437207335078e+01 -5.6134876850269116e+01
 -5.6124694200223097e+01 -5.6124508907469014e+01 -5.6138385200277924e+01 -5.6128173856049607e+01 -4.3693734604075210e+01 -4.3699627574268327e+01 -4.3697474970188310e+01 -4.3703370241210465e+01 -4.3708824586614639e+01 -4.3714727729220932e+01
 -4.3714175229584207e+01 -4.3717924322327598e+01 -4.3729302421013173e+01 -5.6151272776480553e+01 -5.6176073807668544e+01 -5.6177518308167485e+01 -5.6152704586107980e+01 -5.6181038580711977e+01 -5.6156193525271981e+01 -4.3728344534587507e+01
 -4.3734257076760478e+01 -4.3756755641068416e+01 -4.3762679867027011e+01 -4.3748855671002644e+01 -4.3777307486028228e+01 -5.6128059650643664e+01 -5.6141941518150155e+01 -5.6131700410185118e+01 -5.6129544922264699e+01 -5.6143429164472856e+01
 -5.6133175405159520e+01 -4.3729202912634904e+01 -4.3732959536998756e+01 -4.3744360359343638e+01 -4.3735576619116465e+01 -4.3739336621704716e+01 -4.3750747392858663e+01 -5.6184607088921211e+01 -5.6159729676837600e+01 -5.6186099859267010e+01
 -5.6161208732433877e+01 -4.3763939138492546e+01 -4.3792421099965978e+01 -4.3770337181076975e+01 -4.3798831942542570e+01 -6.8593379100699110e+01 -6.8593677127850810e+01 -6.8594399138281133e+01 -6.8671785021583034e+01 -6.8672083418059515e+01
 -6.8672806330350056e+01 -6.8595124773062267e+01 -6.8595426425857880e+01 -6.8673532881016470e+01 -6.8673834917176336e+01 -5.6209182275249070e+01 -5.6249957037738788e+01 -5.6251407713953554e+01 -5.6210619638829890e+01 -5.6254943026606426e+01
 -5.6214122131439133e+01 -4.3795134086775448e+01 -4.3801070293241224e+01 -4.3844677260318242e+01 -4.3850628385760977e+01 -4.3815727404306166e+01 -4.3865322153173203e+01 -5.6299581529325877e+01 -5.6357121787363610e+01 -5.6358578159554803e+01
 -5.6301025284135157e+01 -5.6362127399095975e+01 -5.6304543348572729e+01 -4.3906864290782018e+01 -4.3912831533440894e+01 -4.3983101870118603e+01 -4.3989086986249184e+01 -4.3927564984785668e+01 -4.4003864695001091e+01 -5.6258526755871699e+01
 -5.6217672037007020e+01 -5.6260025882794736e+01 -5.6219156846653661e+01 -4.3830871289138521e+01 -4.3880503571106246e+01 -4.3837294889859223e+01 -4.3886942967960152e+01 -5.6365725296040402e+01 -5.6308109022194223e+01 -5.6367230360025466e+01
 -5.6309600419392623e+01 -4.3942787138333586e+01 -4.4019132606776118e+01 -4.3949243705488826e+01 -4.4025608551496930e+01 -3.1175980752077852e+01 -3.1179231234756923e+01 -3.1198835792906010e+01 -3.1202098361166076e+01 -3.1189452102566857e+01
 -3.1212351577140875e+01 -3.1257075303148170e+01 -3.1260380834636297e+01 -3.1270732654603599e+01 -1.8432924710821567e+01 -1.8432629640760283e+01 -1.8453200459782693e+01 -1.8433283281054571e+01 -1.8512843902567472e+01 -1.8452922658262171e+01
 -1.8513465789545940e+01 -1.8453558008185315e+01 -1.8513098524340322e+01 -1.8435091235654834e+01 -1.8455362825295278e+01 -1.8437891304099015e+01 -1.8518153714677929e+01 -1.8458181671972895e+01 -1.8515281600711305e+01 -1.8610441787979806e+01
 -1.8737674157431407e+01 -1.8610211387593079e+01 -1.8738556971324346e+01 -1.8610902811139283e+01 -1.8737891148020314e+01 -1.8612763770547758e+01 -1.8743756269102882e+01 -1.8615774118036200e+01 -1.8740512612689322e+01 -3.1207697924779062e+01
 -3.1230638191847969e+01 -3.1235320913567854e+01 -3.1258303913718603e+01 -3.1289130667611161e+01 -3.1316906602778452e+01 -1.8442840520710490e+01 -1.8463140813759146e+01 -1.8449245106562845e+01 -1.8529644557436239e+01 -1.8469569898442110e+01
 -1.8523152065979300e+01 -1.8458159075647210e+01 -1.8478495234268884e+01 -1.8468856942255442e+01 -1.8549392598831645e+01 -1.8489217868733355e+01 -1.8538609248540219e+01 -1.8620831893583262e+01 -1.8755713816982507e+01 -1.8627457176435389e+01
 -1.8748890210500036e+01 -1.8636468905643689e+01 -1.8775850716389403e+01 -1.8647375350201411e+01 -1.8764768347843400e+01 -3.1320055691489301e+01 -3.1323420996986911e+01 -3.1333897598026784e+01 -3.1347664554533534e+01 -3.1351058048819162e+01
 -3.1361592428475475e+01 -1.8881095035277436e+01 -1.9015576905728448e+01 -1.8880881452622422e+01 -1.9017109341729448e+01 -1.8882095594368458e+01 -1.9015761115464123e+01 -1.8884179024195006e+01 -1.9023219851011174e+01 -1.8887753707571058e+01
 -1.9019300405203715e+01 -1.9113251207440765e+01 -1.9149334655689714e+01 -1.9113101607509222e+01 -1.9151176623894283e+01 -1.9114862608957093e+01 -1.9149459822567501e+01 -1.9117122782073665e+01 -1.9157737621927904e+01 -1.9121305248505735e+01
 -1.9153449478540299e+01 -3.1352424175702261e+01 -3.1380319891067973e+01 -3.1380176684558922e+01 -3.1408124630355093e+01 -1.8892955415180374e+01 -1.9035825663435674e+01 -1.8900043891026137e+01 -1.9028464284804837e+01 -1.8909113083657264e+01
 -1.9056432639476466e+01 -1.8920427939755449e+01 -1.9044880354827697e+01 -1.9126570788504708e+01 -1.9170655337248622e+01 -1.9134141341143742e+01 -1.9162998782725847e+01 -1.9143174137042521e+01 -1.9191478739778994e+01 -1.9154909369500228e+01
 -1.9179667760913048e+01 -1.1806139070577309e+01 -1.1836305173990182e+01 -1.1808327003580283e+01 -1.1838821348737294e+01 -1.1802746241525124e+01 -1.1832655693986965e+01 -1.1936545021264397e+01 -1.1933700470203696e+01 -1.1929712755907163e+01
 -4.9538597132351203e+00 -4.9391308312061204e+00 -4.9722187717477340e+00 -4.9513129819791919e+00 -4.9246327169012281e+00 -4.9342723654658744e+00 -5.0673274812730016e+00 -5.0425472755979293e+00 -5.0227012425987718e+00 -1.1800500289802912e+01
 -1.1830300519079223e+01 -1.1800161570500485e+01 -1.1829936158441267e+01 -1.1927210235998686e+01 -1.1926837164880983e+01 -4.9161652239660381e+00 -4.9251236490931447e+00 -4.9123075992489049e+00 -4.9211243841838135e+00 -5.0124885609200005e+00
 -5.0082051898650528e+00 -1.2109249375756184e+01 -1.2112259121597429e+01 -1.2105170904328460e+01 -1.2375332516118052e+01 -1.2372597140696904e+01 -1.2369029324632839e+01 -5.2852342898605089e+00 -5.2574230725036779e+00 -5.2355953149291174e+00
 -5.7055520647965059e+00 -5.6779084656189820e+00 -5.6567661090509009e+00 -1.2102724742682453e+01 -1.2102493063691478e+01 -1.2367081272641293e+01 -1.2367264612565211e+01 -5.2247463351789163e+00 -5.2204021526901885e+00 -5.6466950333275392e+00
 -5.6429464147485140e+00 -3.2351692712266251e+00 -3.2064709542242618e+00 -3.2331959339709422e+00 -3.1777475028542606e+00 -1.5332075657603803e+00 -1.4868214371767141e+00 -1.5051674596935192e+00 -1.3764602442458767e+00 6.6094480919077908e-02
 1.1928504422738913e-01 1.1025527674746789e-01 3.5735181096785978e-01 4.2264130766979041e-01 4.2278148614660654e-01 4.2276073387034824e-01 4.3836958514301966e-01 -3.1887497378154297e+00 -3.1550067193048466e+00 -1.4687717178231738e+00
 -1.3526093590888035e+00 1.3053197535656152e-01 3.6046134047208517e-01 4.2280734444283075e-01 4.3837789081226980e-01 -3.3037136425113349e+00 -3.2389050708117737e+00 -1.5459049990510736e+00 -1.4008850606971290e+00 9.5621368569922177e-02