DF-ISE text

Info {
  version   = 1.0
  type      = xyplot
  datasets  = [
    "frequency"
    "v(cp)" "v(cn)" "a(cp,cp)" "c(cp,cp)" "a(cp,cn)"
    "c(cp,cn)" "a(cn,cp)" "c(cn,cp)" "a(cn,cn)" "c(cn,cn)" ]
  functions = [
    Frequency
    Voltage Voltage Admittance Capacitance Admittance
    Capacitance Admittance Capacitance Admittance Capacitance ]
}

Data {
      1.00000000000000E+04
      0.00000000000000E+00   0.00000000000000E+00  -2.43072744813459E-12   5.82396200458032E-16  -1.27125237734154E-13
     -5.82396200471250E-16  -1.27125235604708E-13  -5.82396200471150E-16  -1.36728418957571E-12   5.82396200471145E-16
      1.00000000000000E+04
     -3.00000000000000E-05   0.00000000000000E+00  -2.43072744813459E-12   5.82365315771338E-16  -1.27104086001667E-13
     -5.82365315776573E-16  -1.27104067996415E-13  -5.82365315777137E-16  -1.51920465508412E-13   5.82365315777117E-16
      1.00000000000000E+04
     -6.65000000000000E-05   0.00000000000000E+00  -2.88648884465982E-12   5.82327747174340E-16  -1.27078368532409E-13
     -5.82327747160620E-16  -1.27078357343031E-13  -5.82327747160662E-16   1.06344325855888E-12   5.82327747160779E-16
      1.00000000000000E+04
     -1.12125000000000E-04   0.00000000000000E+00  -3.49417070669347E-12   5.82280798369335E-16  -1.27046248106313E-13
     -5.82280798369007E-16  -1.27046244868898E-13  -5.82280798369448E-16  -1.06344325855888E-12   5.82280798369383E-16
      1.00000000000000E+04
     -1.69156250000000E-04   0.00000000000000E+00  -3.49417070669347E-12   5.82222131088041E-16  -1.27006138608764E-13
     -5.82222131088310E-16  -1.27006123301859E-13  -5.82222131089761E-16   0.00000000000000E+00   5.82222131089471E-16
      1.00000000000000E+04
     -2.40445312500000E-04   0.00000000000000E+00  -3.34225024118506E-12   5.82148826203380E-16  -1.26956065909313E-13
     -5.82148826200086E-16  -1.26956045723894E-13  -5.82148826200718E-16  -1.51920465508412E-13   5.82148826200894E-16
      1.00000000000000E+04
     -3.29556640625000E-04   0.00000000000000E+00  -2.88648884465982E-12   5.82057240703917E-16  -1.26893575149181E-13
     -5.82057240702969E-16  -1.26893561731465E-13  -5.82057240703971E-16   1.06344325855888E-12   5.82057240703866E-16
      1.00000000000000E+04
     -4.40945800781250E-04   0.00000000000000E+00  -3.34225024118506E-12   5.81942830035106E-16  -1.26815617510018E-13
     -5.81942830037844E-16  -1.26815616789679E-13  -5.81942830037975E-16   9.11522793050471E-13   5.81942830038208E-16
      1.00000000000000E+04
     -5.80182250976562E-04   0.00000000000000E+00  -3.03840931016824E-12   5.81799927818329E-16  -1.26718412945800E-13
     -5.81799927840202E-16  -1.26718396611349E-13  -5.81799927841280E-16   9.11522793050471E-13   5.81799927841216E-16
      1.00000000000000E+04
     -7.54227813720703E-04   0.00000000000000E+00  -2.88648884465982E-12   5.81621473504138E-16  -1.26597284494767E-13
     -5.81621473495437E-16  -1.26597283533531E-13  -5.81621473495633E-16   1.06344325855888E-12   5.81621473495447E-16
      1.00000000000000E+04
     -9.71784767150879E-04   0.00000000000000E+00  -3.49417070669347E-12   5.81398676034304E-16  -1.26446460075478E-13
     -5.81398676028988E-16  -1.26446448463013E-13  -5.81398676029470E-16   3.03840931016824E-13   5.81398676029897E-16
      1.00000000000000E+04
     -1.24373095893860E-03   0.00000000000000E+00  -3.79801163771029E-12   5.81120600861056E-16  -1.26258838640987E-13
     -5.81120600872514E-16  -1.26258828000665E-13  -5.81120600873595E-16   0.00000000000000E+00   5.81120600873541E-16
      1.00000000000000E+04
     -1.58366369867325E-03   0.00000000000000E+00  -3.49417070669347E-12   5.80773663999408E-16  -1.26025719732441E-13
     -5.80773663999407E-16  -1.26025718848271E-13  -5.80773663999238E-16   4.55761396525235E-13   5.80773663999306E-16
      1.00000000000000E+04
     -2.00857962334156E-03   0.00000000000000E+00  -3.03840931016824E-12   5.80341016112374E-16  -1.25736496329306E-13
     -5.80341016103255E-16  -1.25736465469163E-13  -5.80341016104699E-16   0.00000000000000E+00   5.80341016104711E-16
      1.00000000000000E+04
     -2.53972452917695E-03   0.00000000000000E+00  -2.88648884465982E-12   5.79801798249867E-16  -1.25378318871893E-13
     -5.79801798241014E-16  -1.25378300619067E-13  -5.79801798241770E-16   1.51920465508412E-13   5.79801798241643E-16
      1.00000000000000E+04
     -3.20365566147119E-03   0.00000000000000E+00  -2.73456837915141E-12   5.79130250422416E-16  -1.24935743568071E-13
     -5.79130250424278E-16  -1.24935747487679E-13  -5.79130250423924E-16   0.00000000000000E+00   5.79130250423863E-16
      1.00000000000000E+04
     -4.03356957683899E-03   0.00000000000000E+00  -3.34225024118506E-12   5.78294657019712E-16  -1.24390393392478E-13
     -5.78294657048764E-16  -1.24390403160937E-13  -5.78294657047948E-16  -1.36728418957571E-12   5.78294657048092E-16
      1.00000000000000E+04
     -5.07096197104873E-03   0.00000000000000E+00  -6.07681862033647E-13   5.77256119492256E-16  -1.23720673419508E-13
     -5.77256119489777E-16  -1.23720668731177E-13  -5.77256119490245E-16  -1.82304558610094E-12   5.77256119490066E-16
      1.00000000000000E+04
     -6.36770246381091E-03   0.00000000000000E+00  -1.97496605160935E-12   5.75967159157769E-16  -1.22901606470787E-13
     -5.75967159159478E-16  -1.22901582663881E-13  -5.75967159160445E-16   1.51920465508412E-13   5.75967159160714E-16
      1.00000000000000E+04
     -7.98862807976364E-03   0.00000000000000E+00  -2.73456837915141E-12   5.74370177403434E-16  -1.21904875792398E-13
     -5.74370177415293E-16  -1.21904873998800E-13  -5.74370177415475E-16   9.11522793050471E-13   5.74370177415487E-16
      1.00000000000000E+04
     -1.00147850997046E-02   0.00000000000000E+00  -2.27880698262618E-12   5.72395837043022E-16  -1.20699185466176E-13
     -5.72395837058377E-16  -1.20699171544057E-13  -5.72395837058873E-16   2.27880698262618E-12   5.72395837058863E-16
      1.00000000000000E+04
     -1.24799428072993E-02   0.00000000000000E+00  -3.03840931016824E-12   5.70025928004800E-16  -1.19288854444799E-13
     -5.70025928009714E-16  -1.19288838332523E-13  -5.70025928010741E-16   0.00000000000000E+00   5.70025928010875E-16
      1.00000000000000E+04
     -1.54792180182063E-02   0.00000000000000E+00  -4.25377303423553E-12   5.67189191790315E-16  -1.17650602732070E-13
     -5.67189191795270E-16  -1.17650602569858E-13  -5.67189191795526E-16   6.07681862033647E-13   5.67189191795692E-16
      1.00000000000000E+04
     -1.91283361914765E-02   0.00000000000000E+00  -3.03840931016824E-12   5.63805145975081E-16  -1.15762397567249E-13
     -5.63805145993649E-16  -1.15762397914099E-13  -5.63805145993974E-16  -1.51920465508412E-13   5.63805145993886E-16
      1.00000000000000E+04
     -2.35680966356218E-02   0.00000000000000E+00  -1.97496605160935E-12   5.59784575404430E-16  -1.13604698095857E-13
     -5.59784575424652E-16  -1.13604689003645E-13  -5.59784575425678E-16   9.11522793050471E-13   5.59784575425726E-16
      1.00000000000000E+04
     -2.89698051759987E-02   0.00000000000000E+00  -2.43072744813459E-12   5.55030994507316E-16  -1.11161642647557E-13
     -5.55030994510389E-16  -1.11161654788416E-13  -5.55030994510253E-16   0.00000000000000E+00   5.55030994510290E-16
      1.00000000000000E+04
     -3.55418839001238E-02   0.00000000000000E+00  -3.49417070669347E-12   5.49443480104955E-16  -1.08421949881942E-13
     -5.49443480111999E-16  -1.08421946253266E-13  -5.49443480112555E-16  -4.55761396525235E-13   5.49443480112459E-16
      1.00000000000000E+04
     -4.35379130144761E-02   0.00000000000000E+00  -3.34225024118506E-12   5.42921278591504E-16  -1.05379333013681E-13
     -5.42921278605306E-16  -1.05379332127554E-13  -5.42921278605367E-16   6.07681862033647E-13   5.42921278605508E-16
      1.00000000000000E+04
     -5.32664151036047E-02   0.00000000000000E+00  -5.77297768931965E-12   5.35370410321784E-16  -1.02032380057358E-13
     -5.35370410328092E-16  -1.02032365242619E-13  -5.35370410328263E-16   1.36728418957571E-12   5.35370410328302E-16
      1.00000000000000E+04
     -6.51027593120446E-02   0.00000000000000E+00  -5.92489815482806E-12   5.26711892966285E-16  -9.83840862537734E-14
     -5.26711892973687E-16  -9.83840814152191E-14  -5.26711892973877E-16   1.06344325855888E-12   5.26711892973781E-16
      1.00000000000000E+04
     -7.95036447656463E-02   0.00000000000000E+00  -5.31721629279441E-12   5.16889804721669E-16  -9.44412946890882E-14
     -5.16889804710458E-16  -9.44412810944633E-14  -5.16889804711353E-16   6.07681862033647E-13   5.16889804711144E-16
      1.00000000000000E+04
     -9.70247220675285E-02   0.00000000000000E+00  -4.25377303423553E-12   5.05874825046157E-16  -9.02138287339295E-14
     -5.05874825037772E-16  -9.02138088038983E-14  -5.05874825039019E-16  -4.55761396525235E-13   5.05874825039134E-16
      1.00000000000000E+04
     -1.18342032784818E-01   0.00000000000000E+00  -4.86145489626918E-12   4.93655467093789E-16  -8.57119837735504E-14
     -4.93655467110048E-16  -8.57119791014116E-14  -4.93655467110226E-16   2.27880698262618E-12   4.93655467110054E-16
      1.00000000000000E+04
     -1.44278094157521E-01   0.00000000000000E+00  -4.40569349974394E-12   4.80208237138528E-16  -8.09404517444640E-14
     -4.80208237134268E-16  -8.09404378710650E-14  -4.80208237135052E-16   1.82304558610094E-12   4.80208237135007E-16
      1.00000000000000E+04
     -1.75833635494310E-01   0.00000000000000E+00  -3.79801163771029E-12   4.65449934184552E-16  -7.58895677329026E-14
     -4.65449934192645E-16  -7.58895631345367E-14  -4.65449934193027E-16   1.51920465508412E-13   4.65449934192855E-16
      1.00000000000000E+04
     -2.14226210787402E-01   0.00000000000000E+00  -3.79801163771029E-12   4.49217987702465E-16  -7.05347677821108E-14
     -4.49217987708079E-16  -7.05347571722682E-14  -4.49217987708408E-16   6.07681862033647E-13   4.49217987708490E-16
      1.00000000000000E+04
     -2.59657424884229E-01   0.00000000000000E+00  -3.94993210321871E-12   4.31852755498677E-16  -6.50181537048775E-14
     -4.31852755504616E-16  -6.50181255122646E-14  -4.31852755505751E-16   3.03840931016824E-12   4.31852755505918E-16
      1.00000000000000E+04
     -3.13417694898806E-01   0.00000000000000E+00  -4.25377303423553E-12   4.13572957785261E-16  -5.94365507834867E-14
     -4.13572957793190E-16  -5.94365573034515E-14  -4.13572957793131E-16   3.03840931016824E-13   4.13572957793141E-16
      1.00000000000000E+04
     -3.77034014416056E-01   0.00000000000000E+00  -3.94993210321871E-12   3.95010624533137E-16  -5.40188737295297E-14
     -3.95010624558945E-16  -5.40188612583408E-14  -3.95010624559270E-16   7.59602327542059E-13   3.95010624559201E-16
      1.00000000000000E+04
     -4.52313325844803E-01   0.00000000000000E+00  -3.94993210321871E-12   3.76645985682027E-16  -4.89298803649923E-14
     -3.76645985714827E-16  -4.89298616217206E-14  -3.76645985715171E-16  -4.55761396525235E-13   3.76645985715201E-16
      1.00000000000000E+04
     -5.41393844368819E-01   0.00000000000000E+00  -3.79801163771029E-12   3.57981229581054E-16  -4.40394319617387E-14
     -3.57981229605840E-16  -4.40394074003171E-14  -3.57981229606600E-16  -1.51920465508412E-13   3.57981229606561E-16
      1.00000000000000E+04
     -6.46805791288905E-01   0.00000000000000E+00  -3.94993210321871E-12   3.38342800180258E-16  -3.91495049519283E-14
     -3.38342800187756E-16  -3.91495010480203E-14  -3.38342800187882E-16   3.03840931016824E-13   3.38342800187856E-16
      1.00000000000000E+04
     -7.71543261811007E-01   0.00000000000000E+00  -4.25377303423553E-12   3.18909016059255E-16  -3.45604012890847E-14
     -3.18909016069304E-16  -3.45603836569232E-14  -3.18909016069827E-16   1.21536372406729E-12   3.18909016069874E-16
      1.00000000000000E+04
     -9.19149268595494E-01   0.00000000000000E+00  -3.94993210321871E-12   3.00507994765198E-16  -3.05190731061535E-14
     -3.00507994786077E-16  -3.05190737483263E-14  -3.00507994786028E-16   1.51920465508412E-13   3.00507994786070E-16
      1.00000000000000E+04
     -1.09381637662380E+00   0.00000000000000E+00  -3.49417070669347E-12   2.81581905393857E-16  -2.66135054605518E-14
     -2.81581905395703E-16  -2.66135096919077E-14  -2.81581905395616E-16   1.21536372406729E-12   2.81581905395569E-16
      1.00000000000000E+04
     -1.30050578779064E+00   0.00000000000000E+00  -3.49417070669347E-12   2.63668499079531E-16  -2.31361935698576E-14
     -2.63668499079095E-16  -2.31362082761967E-14  -2.63668499078855E-16  -9.11522793050471E-13   2.63668499078907E-16
      1.00000000000000E+04
     -1.54508825767139E+00   0.00000000000000E+00  -3.79801163771029E-12   2.46282819145519E-16  -2.00362252082648E-14
     -2.46282819143849E-16  -2.00362378954931E-14  -2.46282819143667E-16  -6.07681862033647E-13   2.46282819143639E-16
      1.00000000000000E+04
     -1.83451084703028E+00   0.00000000000000E+00  -3.49417070669347E-12   2.29568744507322E-16  -1.72194756610979E-14
     -2.29568744507774E-16  -1.72194675395044E-14  -2.29568744507927E-16   6.07681862033647E-13   2.29568744507901E-16
      1.00000000000000E+04
     -2.16734682479300E+00   0.00000000000000E+00  -3.49417070669347E-12   2.13937247503363E-16  -1.48137907418229E-14
     -2.13937247503712E-16  -1.48137919747492E-14  -2.13937247503857E-16  -6.07681862033647E-13   2.13937247503846E-16
      1.00000000000000E+04
     -2.55010819922014E+00   0.00000000000000E+00  -3.79801163771029E-12   1.99693910876277E-16  -1.27598395406975E-14
     -1.99693910891253E-16  -1.27598461539649E-14  -1.99693910891243E-16   1.06344325855888E-12   1.99693910891264E-16
      1.00000000000000E+04
     -2.99028377981134E+00   0.00000000000000E+00  -3.79801163771029E-12   1.85985727673110E-16  -1.09199376006490E-14
     -1.85985727688615E-16  -1.09199350518051E-14  -1.85985727688518E-16   7.59602327542059E-13   1.85985727688566E-16
      1.00000000000000E+04
     -3.49648569749122E+00   0.00000000000000E+00  -3.79801163771029E-12   1.73524221966238E-16  -9.39714978703005E-15
     -1.73524221975348E-16  -9.39715291226493E-15  -1.73524221975430E-16   1.06344325855888E-12   1.73524221975431E-16
      1.00000000000000E+04
     -4.07861790282309E+00   0.00000000000000E+00  -3.49417070669347E-12   1.61965616955877E-16  -8.07082483320060E-15
     -1.61965616963291E-16  -8.07081656026692E-15  -1.61965616963401E-16  -9.11522793050471E-13   1.61965616963417E-16
      1.00000000000000E+04
     -4.74806993895473E+00   0.00000000000000E+00  -3.49417070669347E-12   1.51030189515512E-16  -6.89825117867173E-15
     -1.51030189522266E-16  -6.89825319690589E-15  -1.51030189522262E-16   1.51920465508412E-12   1.51030189522284E-16
      1.00000000000000E+04
     -5.51793978050612E+00   0.00000000000000E+00  -3.49417070669347E-12   1.40809529500447E-16  -5.88920825761403E-15
     -1.40809529507190E-16  -5.88920334003943E-15  -1.40809529507242E-16   1.51920465508412E-13   1.40809529507245E-16
      1.00000000000000E+04
     -6.40329009829022E+00   0.00000000000000E+00  -3.49417070669347E-12   1.31316550604576E-16  -5.02555783405968E-15
     -1.31316550602193E-16  -5.02555412455486E-15  -1.31316550602204E-16  -4.55761396525235E-13   1.31316550602239E-16
      1.00000000000000E+04
     -7.42144296374194E+00   0.00000000000000E+00  -3.34225024118506E-12   1.22489057582977E-16  -4.28322007405367E-15
     -1.22489057571458E-16  -4.28321627562177E-15  -1.22489057571509E-16   6.07681862033647E-13   1.22489057571512E-16
      1.00000000000000E+04
     -8.59231875901141E+00   0.00000000000000E+00  -3.49417070669347E-12   1.14273603955967E-16  -3.64479292169016E-15
     -1.14273603953059E-16  -3.64478897153947E-15  -1.14273603953112E-16   3.03840931016824E-13   1.14273603953114E-16
      1.00000000000000E+04
     -9.93882592357130E+00   0.00000000000000E+00  -3.34225024118506E-12   1.06626386526548E-16  -3.09869394450674E-15
     -1.06626386526895E-16  -3.09868366748521E-15  -1.06626386526971E-16  -9.11522793050471E-13   1.06626386526972E-16
      1.00000000000000E+04
     -1.14873091628152E+01   0.00000000000000E+00  -3.34225024118506E-12   9.94629003714724E-17  -2.63138151409657E-15
     -9.94629003624833E-17  -2.63137352325531E-15  -9.94629003625239E-17   0.00000000000000E+00   9.94629003625373E-17
      1.00000000000000E+04
     -1.32680648879456E+01   0.00000000000000E+00  -3.34225024118506E-12   9.27108340751509E-17  -2.21502082758528E-15
     -9.27108340849343E-17  -2.21502321322531E-15  -9.27108340849030E-17  -1.51920465508412E-13   9.27108340849161E-17
      1.00000000000000E+04
     -1.53159339718457E+01   0.00000000000000E+00  -3.34225024118506E-12   8.65020069948878E-17  -1.86166886839775E-15
     -8.65020070093254E-17  -1.86167295807560E-15  -8.65020070093051E-17   1.51920465508412E-13   8.65020070093064E-17
      1.00000000000000E+04
     -1.76027211155340E+01   0.00000000000000E+00  -3.34225024118506E-12   8.08135402049121E-17  -1.57437927820313E-15
     -8.08135402131931E-17  -1.57438198330860E-15  -8.08135402131717E-17   1.06344325855888E-12   8.08135402131788E-17
      1.00000000000000E+04
     -2.02325263307756E+01   0.00000000000000E+00  -3.49417070669347E-12   7.55090709710150E-17  -1.31567702936945E-15
     -7.55090709852029E-17  -1.31567876699671E-15  -7.55090709851891E-17   2.58264791364300E-12   7.55090709851979E-17
      1.00000000000000E+04
     -2.31691421544621E+01   0.00000000000000E+00  -3.49417070669347E-12   7.06172030609600E-17  -1.10071672794776E-15
     -7.06172030732393E-17  -1.10071587021936E-15  -7.06172030732369E-17   0.00000000000000E+00   7.06172030732337E-17
      1.00000000000000E+04
     -2.64483631575787E+01   0.00000000000000E+00  -3.49417070669347E-12   6.61820841128330E-17  -9.27706509530694E-16
     -6.61820841386515E-17  -9.27710527734476E-16  -6.61820841386318E-17   3.03840931016824E-13   6.61820841386453E-17
      1.00000000000000E+04
     -3.01101599443922E+01   0.00000000000000E+00  -3.34225024118506E-12   6.20935004081571E-17  -7.74260009248203E-16
     -6.20935004099742E-17  -7.74253987424747E-16  -6.20935004099973E-17   6.07681862033647E-13   6.20935004100157E-17
      1.00000000000000E+04
     -3.41991663563339E+01   0.00000000000000E+00  -3.49417070669347E-12   5.83032654756718E-17  -6.42337463066525E-16
     -5.83032654802268E-17  -6.42336225340041E-16  -5.83032654802293E-17   3.03840931016824E-13   5.83032654802293E-17
      1.00000000000000E+04
     -3.87652235163355E+01   0.00000000000000E+00  -3.49417070669347E-12   5.47933094344519E-17  -5.31589831819884E-16
     -5.47933094542369E-17  -5.31584740978174E-16  -5.47933094542436E-17  -4.55761396525235E-13   5.47933094542528E-17
      1.00000000000000E+04
     -4.38639873450040E+01   0.00000000000000E+00  -3.34225024118506E-12   5.15375234584368E-17  -4.38862672409096E-16
     -5.15375234658045E-17  -4.38860040888669E-16  -5.15375234658046E-17   3.03840931016824E-13   5.15375234658166E-17
      1.00000000000000E+04
     -4.95576069536838E+01   0.00000000000000E+00  -3.34225024118506E-12   4.85036851673274E-17  -3.59656996490551E-16
     -4.85036851919608E-17  -3.59662448707860E-16  -4.85036851919466E-17   4.55761396525235E-13   4.85036851919620E-17
      1.00000000000000E+04
     -5.59154821833762E+01   0.00000000000000E+00  -3.34225024118506E-12   4.56758439305069E-17  -2.86248741640294E-16
     -4.56758439440121E-17  -2.86251131583591E-16  -4.56758439440075E-17   1.21536372406729E-12   4.56758439440267E-17
      1.00000000000000E+04
     -6.30151095231994E+01   0.00000000000000E+00  -3.49417070669347E-12   4.30615961917427E-17  -2.29090837125053E-16
     -4.30615962050805E-17  -2.29090366158110E-16  -4.30615962050820E-17   6.07681862033647E-13   4.30615962051015E-17
      1.00000000000000E+04
     -7.09430267193353E+01   0.00000000000000E+00  -3.34225024118506E-12   4.05900374901961E-17  -1.77423002520975E-16
     -4.05900374896381E-17  -1.77435060725627E-16  -4.05900374896232E-17   6.07681862033647E-13   4.05900374896492E-17
      1.00000000000000E+04
     -7.95316036818158E+01   0.00000000000000E+00  -3.34225024118506E-12   3.83574965312426E-17  -1.38578015736552E-16
     -3.83574965395675E-17  -1.38597385463908E-16  -3.83574965395517E-17  -4.55761396525235E-13   3.83574965395770E-17
      1.00000000000000E+04
     -8.88358953911698E+01   0.00000000000000E+00  -3.03840931016824E-12   3.62869594037820E-17  -9.97432694668662E-17
     -3.62869594065875E-17  -9.97650377923002E-17  -3.62869594065729E-17   7.59602327542059E-13   3.62869594065862E-17
      1.00000000000000E+04
     -9.89155447429699E+01   0.00000000000000E+00  -3.34225024118506E-12   3.43860732851608E-17  -7.05623148385729E-17
     -3.43860733128346E-17  -7.05688951123043E-17  -3.43860733128318E-17   1.51920465508412E-13   3.43860733128469E-17
      1.00000000000000E+04
     -1.09835164874087E+02   0.00000000000000E+00  -3.94993210321871E-12   3.26434259707002E-17  -4.77466294491349E-17
     -3.26434260042186E-17  -4.77640204634287E-17  -3.26434260042129E-17   9.11522793050471E-13   3.26434260042260E-17
      1.00000000000000E+04
     -1.21664753349463E+02   0.00000000000000E+00   2.58264791364300E-12   3.10273199768099E-17  -2.74304545294539E-17
     -3.10273200030526E-17  -2.74444725195738E-17  -3.10273200030506E-17  -9.11522793050471E-13   3.10273200030660E-17
      1.00000000000000E+04
     -1.33664753349463E+02   0.00000000000000E+00  -8.81138699948788E-12   2.96560828230141E-17  -9.73647335386076E-18
     -2.96560828731793E-17  -9.74692937850173E-18  -2.96560828731799E-17  -6.07681862033647E-13   2.96560828732033E-17
      1.00000000000000E+04
     -1.45664753349463E+02   0.00000000000000E+00  -6.83642094787853E-12   2.90284429995500E-17  -2.36149187937167E-18
     -2.90284430106444E-17  -2.37109028063901E-18  -2.90284430106445E-17   6.07681862033647E-13   2.90284430106645E-17
      1.00000000000000E+04
     -1.57664753349463E+02   0.00000000000000E+00  -5.31721629279441E-12   2.89020206655134E-17  -1.37288475910238E-18
     -2.89020206402442E-17  -1.37793590747114E-18  -2.89020206402442E-17   6.07681862033647E-13   2.89020206402700E-17
      1.00000000000000E+04
     -1.69664753349463E+02   0.00000000000000E+00  -4.70953443076077E-12   2.88559488039667E-17  -8.53197471292142E-19
     -2.88559488171339E-17  -8.56715096200048E-19  -2.88559488171339E-17   0.00000000000000E+00   2.88559488171586E-17
      1.00000000000000E+04
     -1.81664753349463E+02   0.00000000000000E+00   7.59602327542059E-13   2.88370056547351E-17  -7.74289225026149E-19
     -2.88370056471205E-17  -7.86798035551501E-19  -2.88370056471205E-17   1.06344325855888E-12   2.88370056471400E-17
      1.00000000000000E+04
     -1.93664753349463E+02   0.00000000000000E+00   3.03840931016824E-13   2.88312455024292E-17  -6.69383325974070E-19
     -2.88312455165383E-17  -6.81737664985512E-19  -2.88312455165382E-17  -4.55761396525235E-13   2.88312455165683E-17
      1.00000000000000E+04
     -2.05664753349463E+02   0.00000000000000E+00  -5.31721629279441E-12   2.88284601942648E-17  -7.74872729079684E-19
     -2.88284601837174E-17  -7.83898936035290E-19  -2.88284601837174E-17   9.11522793050471E-13   2.88284601837449E-17
      1.00000000000000E+04
     -2.17664753349463E+02   0.00000000000000E+00   1.97496605160935E-12   2.88260193227683E-17  -7.49749036807881E-19
     -2.88260193397963E-17  -7.61157865247248E-19  -2.88260193397964E-17   6.07681862033647E-13   2.88260193398290E-17
      1.00000000000000E+04
     -2.29664753349463E+02   0.00000000000000E+00   3.49417070669347E-12   2.88236108299402E-17  -6.52510934885561E-19
     -2.88236108331886E-17  -6.60697565501037E-19  -2.88236108331886E-17  -4.55761396525235E-13   2.88236108332047E-17
      1.00000000000000E+04
     -2.41664753349463E+02   0.00000000000000E+00   2.73456837915141E-12   2.88211343661215E-17  -6.30811813490333E-19
     -2.88211343731906E-17  -6.43854149507217E-19  -2.88211343731905E-17   6.07681862033647E-13   2.88211343732130E-17
      1.00000000000000E+04
     -2.53664753349463E+02   0.00000000000000E+00   1.30651600337234E-11   2.88182731189132E-17  -6.26305949936092E-19
     -2.88182731124506E-17  -6.32273693297799E-19  -2.88182731124506E-17   1.51920465508412E-12   2.88182731124783E-17
      1.00000000000000E+04
     -2.65664753349463E+02   0.00000000000000E+00   9.26714839601312E-12   2.88150489124066E-17  -6.26998052135422E-19
     -2.88150489146277E-17  -6.34535470209534E-19  -2.88150489146277E-17   9.11522793050471E-13   2.88150489146587E-17
      1.00000000000000E+04
     -2.77664753349463E+02   0.00000000000000E+00   9.72290979253836E-12   2.88110690581099E-17  -6.26373300766853E-19
     -2.88110690732217E-17  -6.30437328033092E-19  -2.88110690732217E-17  -1.51920465508412E-13   2.88110690732510E-17
      1.00000000000000E+04
     -2.89664753349463E+02   0.00000000000000E+00  -6.22873908584488E-12   2.88058156802139E-17  -6.27252217551911E-19
     -2.88058156702760E-17  -6.34360356188899E-19  -2.88058156702759E-17   1.51920465508412E-13   2.88058156702974E-17
      1.00000000000000E+04
     -3.00000000000000E+02   0.00000000000000E+00   6.07681862033647E-13   2.88001178825390E-17  -6.27588191236571E-19
     -2.88001179222245E-17  -6.32771308667297E-19  -2.88001179222246E-17   4.55761396525235E-13   2.88001179222506E-17
}
