DF-ISE text

Info {
  version   = 1.0
  type      = xyplot
  datasets  = [
    "frequency"
    "v(cp)" "v(cn)" "a(cp,cp)" "c(cp,cp)" "a(cp,cn)"
    "c(cp,cn)" "a(cn,cp)" "c(cn,cp)" "a(cn,cn)" "c(cn,cn)" ]
  functions = [
    Frequency
    Voltage Voltage Admittance Capacitance Admittance
    Capacitance Admittance Capacitance Admittance Capacitance ]
}

Data {
      1.00000000000000E+03
      0.00000000000000E+00   0.00000000000000E+00  -5.31721629279441E-12   5.82426533044414E-16  -1.64655112839311E-15
     -5.82426533058797E-16  -1.64656399503204E-15  -5.82426533058780E-16  -6.07681862033647E-13   5.82426533058378E-16
      1.00000000000000E+03
     -3.00000000000000E-05   0.00000000000000E+00  -5.62105722381124E-12   5.82395618769532E-16  -1.64607166463718E-15
     -5.82395618792295E-16  -1.64609077758649E-15  -5.82395618791941E-16  -1.51920465508412E-13   5.82395618791759E-16
      1.00000000000000E+03
     -6.65000000000000E-05   0.00000000000000E+00  -5.62105722381124E-12   5.82358014237766E-16  -1.64548887367264E-15
     -5.82358014243888E-16  -1.64550832833755E-15  -5.82358014242845E-16   7.59602327542059E-13   5.82358014242843E-16
      1.00000000000000E+03
     -1.12125000000000E-04   0.00000000000000E+00  -6.22873908584488E-12   5.82311020587482E-16  -1.64476107605173E-15
     -5.82311020608334E-16  -1.64478465761278E-15  -5.82311020607801E-16  -9.11522793050471E-13   5.82311020607742E-16
      1.00000000000000E+03
     -1.69156250000000E-04   0.00000000000000E+00  -6.38065955135330E-12   5.82252297378861E-16  -1.64385238687760E-15
     -5.82252297384737E-16  -1.64385613737813E-15  -5.82252297384832E-16  -4.55761396525235E-13   5.82252297384674E-16
      1.00000000000000E+03
     -2.40445312500000E-04   0.00000000000000E+00  -5.77297768931965E-12   5.82178922726258E-16  -1.64271849362836E-15
     -5.82178922742356E-16  -1.64272696179554E-15  -5.82178922741679E-16  -6.07681862033647E-13   5.82178922741636E-16
      1.00000000000000E+03
     -3.29556640625000E-04   0.00000000000000E+00  -5.62105722381124E-12   5.82087250306565E-16  -1.64130383842236E-15
     -5.82087250324213E-16  -1.64131514981024E-15  -5.82087250323151E-16   3.03840931016824E-13   5.82087250323089E-16
      1.00000000000000E+03
     -4.40945800781250E-04   0.00000000000000E+00  -6.22873908584488E-12   5.81972731418811E-16  -1.63954005191952E-15
     -5.81972731430551E-16  -1.63955343855270E-15  -5.81972731430359E-16   4.55761396525235E-13   5.81972731430267E-16
      1.00000000000000E+03
     -5.80182250976562E-04   0.00000000000000E+00  -6.68450048237012E-12   5.81829694579320E-16  -1.63734209015427E-15
     -5.81829694605418E-16  -1.63734503882615E-15  -5.81829694605717E-16   6.07681862033647E-13   5.81829694605273E-16
      1.00000000000000E+03
     -7.54227813720703E-04   0.00000000000000E+00  -6.83642094787853E-12   5.81651072980790E-16  -1.63460529170257E-15
     -5.81651072998352E-16  -1.63461026096362E-15  -5.81651072998276E-16   6.07681862033647E-13   5.81651072998473E-16
      1.00000000000000E+03
     -9.71784767150879E-04   0.00000000000000E+00  -6.83642094787853E-12   5.81428068025869E-16  -1.63120096310506E-15
     -5.81428068040451E-16  -1.63121635978120E-15  -5.81428068039652E-16  -1.51920465508412E-13   5.81428068039612E-16
      1.00000000000000E+03
     -1.24373095893860E-03   0.00000000000000E+00  -7.29218234440377E-12   5.81149735951766E-16  -1.62697123242609E-15
     -5.81149735975921E-16  -1.62699082806909E-15  -5.81149735975095E-16   6.07681862033647E-13   5.81149735975097E-16
      1.00000000000000E+03
     -1.58366369867325E-03   0.00000000000000E+00  -6.38065955135330E-12   5.80802481758901E-16  -1.62172395868773E-15
     -5.80802481764171E-16  -1.62173215787070E-15  -5.80802481763920E-16   3.03840931016824E-13   5.80802481764016E-16
      1.00000000000000E+03
     -2.00857962334156E-03   0.00000000000000E+00  -6.68450048237012E-12   5.80369443036254E-16  -1.61522657637629E-15
     -5.80369443046047E-16  -1.61523147064774E-15  -5.80369443045737E-16   1.51920465508412E-13   5.80369443045540E-16
      1.00000000000000E+03
     -2.53972452917695E-03   0.00000000000000E+00  -5.31721629279441E-12   5.79829745630494E-16  -1.60719988877786E-15
     -5.79829745642712E-16  -1.60719048031042E-15  -5.79829745642892E-16   3.03840931016824E-13   5.79829745642991E-16
      1.00000000000000E+03
     -3.20365566147119E-03   0.00000000000000E+00  -5.92489815482806E-12   5.79157612118297E-16  -1.59731272809593E-15
     -5.79157612142914E-16  -1.59732931667720E-15  -5.79157612141639E-16   9.11522793050471E-13   5.79157612141554E-16
      1.00000000000000E+03
     -4.03356957683899E-03   0.00000000000000E+00  -6.22873908584488E-12   5.78321307557604E-16  -1.58517753848199E-15
     -5.78321307569234E-16  -1.58519288479381E-15  -5.78321307568473E-16  -1.51920465508412E-12   5.78321307568283E-16
      1.00000000000000E+03
     -5.07096197104873E-03   0.00000000000000E+00  -5.16529582728600E-12   5.77281912589512E-16  -1.57034914588736E-15
     -5.77281912601680E-16  -1.57036602133580E-15  -5.77281912601275E-16  -2.27880698262618E-12   5.77281912601000E-16
      1.00000000000000E+03
     -6.36770246381091E-03   0.00000000000000E+00  -6.22873908584488E-12   5.75991927832524E-16  -1.55232970003778E-15
     -5.75991927844946E-16  -1.55234542370542E-15  -5.75991927844592E-16   4.55761396525235E-13   5.75991927844735E-16
      1.00000000000000E+03
     -7.98862807976364E-03   0.00000000000000E+00  -5.16529582728600E-12   5.74393735732428E-16  -1.53058014676140E-15
     -5.74393735759937E-16  -1.53058053653662E-15  -5.74393735759926E-16   6.07681862033647E-13   5.74393735759971E-16
      1.00000000000000E+03
     -1.00147850997046E-02   0.00000000000000E+00  -5.16529582728600E-12   5.72417985198550E-16  -1.50454628005195E-15
     -5.72417985219045E-16  -1.50455660307203E-15  -5.72417985218531E-16   2.27880698262618E-12   5.72417985218601E-16
      1.00000000000000E+03
     -1.24799428072993E-02   0.00000000000000E+00  -5.16529582728600E-12   5.70046502432340E-16  -1.47449918763141E-15
     -5.70046502454342E-16  -1.47451537066892E-15  -5.70046502453833E-16   1.51920465508412E-13   5.70046502453814E-16
      1.00000000000000E+03
     -1.54792180182063E-02   0.00000000000000E+00  -6.38065955135330E-12   5.67208041979899E-16  -1.44018297193115E-15
     -5.67208041995141E-16  -1.44018388138737E-15  -5.67208041994756E-16  -1.51920465508412E-13   5.67208041994790E-16
      1.00000000000000E+03
     -1.91283361914765E-02   0.00000000000000E+00  -5.92489815482806E-12   5.63822148383211E-16  -1.40147373448973E-15
     -5.63822148397958E-16  -1.40147889180980E-15  -5.63822148397389E-16  -6.07681862033647E-13   5.63822148397396E-16
      1.00000000000000E+03
     -2.35680966356218E-02   0.00000000000000E+00  -4.70953443076077E-12   5.59799649597178E-16  -1.35843803735388E-15
     -5.59799649617534E-16  -1.35843862203921E-15  -5.59799649617151E-16   1.51920465508412E-13   5.59799649617190E-16
      1.00000000000000E+03
     -2.89698051759987E-02   0.00000000000000E+00  -4.40569349974394E-12   5.55044119530092E-16  -1.31139105059427E-15
     -5.55044119548695E-16  -1.31139566608756E-15  -5.55044119548784E-16   4.55761396525235E-13   5.55044119548459E-16
      1.00000000000000E+03
     -3.55418839001238E-02   0.00000000000000E+00  -5.77297768931965E-12   5.49454707687248E-16  -1.26094226719450E-15
     -5.49454707711796E-16  -1.26096425794917E-15  -5.49454707711052E-16  -4.55761396525235E-13   5.49454707710655E-16
      1.00000000000000E+03
     -4.35379130144761E-02   0.00000000000000E+00  -5.92489815482806E-12   5.42930738753655E-16  -1.20800614316007E-15
     -5.42930738780611E-16  -1.20800315994830E-15  -5.42930738780789E-16   1.21536372406729E-12   5.42930738780990E-16
      1.00000000000000E+03
     -5.32664151036047E-02   0.00000000000000E+00  -8.05178467194583E-12   5.35378305064141E-16  -1.15374732775108E-15
     -5.35378305086918E-16  -1.15374474146856E-15  -5.35378305087594E-16   1.21536372406729E-12   5.35378305087546E-16
      1.00000000000000E+03
     -6.51027593120446E-02   0.00000000000000E+00  -8.81138699948788E-12   5.26718475625853E-16  -1.09941464635747E-15
     -5.26718475646493E-16  -1.09942982058211E-15  -5.26718475645728E-16   9.11522793050471E-13   5.26718475645842E-16
      1.00000000000000E+03
     -7.95036447656463E-02   0.00000000000000E+00  -7.59602327542059E-12   5.16895346787705E-16  -1.04601497471601E-15
     -5.16895346806741E-16  -1.04601489784803E-15  -5.16895346806910E-16   1.06344325855888E-12   5.16895346807178E-16
      1.00000000000000E+03
     -9.70247220675285E-02   0.00000000000000E+00  -6.68450048237012E-12   5.05879578121202E-16  -9.93839370597210E-16
     -5.05879578147587E-16  -9.93858398128945E-16  -5.05879578147165E-16  -4.55761396525235E-13   5.05879578147041E-16
      1.00000000000000E+03
     -1.18342032784818E-01   0.00000000000000E+00  -6.68450048237012E-12   4.93659631271007E-16  -9.42130092420054E-16
     -4.93659631292332E-16  -9.42140286356028E-16  -4.93659631291816E-16   1.82304558610094E-12   4.93659631291878E-16
      1.00000000000000E+03
     -1.44278094157521E-01   0.00000000000000E+00  -6.22873908584488E-12   4.80211945895693E-16  -8.89689445141186E-16
     -4.80211945940707E-16  -8.89693170595730E-16  -4.80211945940535E-16   2.12688651711777E-12   4.80211945940445E-16
      1.00000000000000E+03
     -1.75833635494310E-01   0.00000000000000E+00  -5.77297768931965E-12   4.65453259120062E-16  -8.36653044954325E-16
     -4.65453259149947E-16  -8.36645367860970E-16  -4.65453259150171E-16  -1.51920465508412E-13   4.65453259150356E-16
      1.00000000000000E+03
     -2.14226210787402E-01   0.00000000000000E+00  -5.62105722381124E-12   4.49220956372572E-16  -7.83687171268870E-16
     -4.49220956403038E-16  -7.83680542943510E-16  -4.49220956402928E-16   3.03840931016824E-13   4.49220956402898E-16
      1.00000000000000E+03
     -2.59657424884229E-01   0.00000000000000E+00  -5.62105722381124E-12   4.31855383172141E-16  -7.26676988006996E-16
     -4.31855383193354E-16  -7.26664866053774E-16  -4.31855383193798E-16   2.88648884465982E-12   4.31855383193712E-16
      1.00000000000000E+03
     -3.13417694898806E-01   0.00000000000000E+00  -5.77297768931965E-12   4.13575258018744E-16  -6.58092671373924E-16
     -4.13575258046858E-16  -6.58109561301900E-16  -4.13575258046348E-16   6.07681862033647E-13   4.13575258046247E-16
      1.00000000000000E+03
     -3.77034014416056E-01   0.00000000000000E+00  -5.77297768931965E-12   3.95012621781027E-16  -5.86281086593457E-16
     -3.95012621802571E-16  -5.86305657891991E-16  -3.95012621801689E-16   4.55761396525235E-13   3.95012621801655E-16
      1.00000000000000E+03
     -4.52313325844803E-01   0.00000000000000E+00  -5.77297768931965E-12   3.76647711203842E-16  -5.27542483393017E-16
     -3.76647711228211E-16  -5.27547842107436E-16  -3.76647711228018E-16  -4.55761396525235E-13   3.76647711227854E-16
      1.00000000000000E+03
     -5.41393844368819E-01   0.00000000000000E+00  -5.77297768931965E-12   3.57982705594031E-16  -4.92336795143238E-16
     -3.57982705612140E-16  -4.92348164280979E-16  -3.57982705611647E-16  -4.55761396525235E-13   3.57982705611686E-16
      1.00000000000000E+03
     -6.46805791288905E-01   0.00000000000000E+00  -5.77297768931965E-12   3.38344040006300E-16  -4.48334050571472E-16
     -3.38344040030212E-16  -4.48348111016315E-16  -3.38344040029871E-16   3.03840931016824E-13   3.38344040029860E-16
      1.00000000000000E+03
     -7.71543261811007E-01   0.00000000000000E+00  -5.77297768931965E-12   3.18910048121052E-16  -3.78221766446255E-16
     -3.18910048136712E-16  -3.78228607314847E-16  -3.18910048136597E-16   1.06344325855888E-12   3.18910048136561E-16
      1.00000000000000E+03
     -9.19149268595494E-01   0.00000000000000E+00  -5.77297768931965E-12   3.00508853568456E-16  -3.44551786524235E-16
     -3.00508853585105E-16  -3.44553516069224E-16  -3.00508853585121E-16   1.51920465508412E-13   3.00508853585054E-16
      1.00000000000000E+03
     -1.09381637662380E+00   0.00000000000000E+00  -5.77297768931965E-12   2.81582606760840E-16  -3.12790807296419E-16
     -2.81582606768841E-16  -3.12803613421225E-16  -2.81582606768544E-16   7.59602327542059E-13   2.81582606768569E-16
      1.00000000000000E+03
     -1.30050578779064E+00   0.00000000000000E+00  -5.77297768931965E-12   2.63669070432777E-16  -2.55380545174174E-16
     -2.63669070457118E-16  -2.55381193740512E-16  -2.63669070457092E-16  -6.07681862033647E-13   2.63669070457089E-16
      1.00000000000000E+03
     -1.54508825767139E+00   0.00000000000000E+00  -5.77297768931965E-12   2.46283280864181E-16  -2.44805129071864E-16
     -2.46283280884763E-16  -2.44813096182112E-16  -2.46283280884622E-16  -4.55761396525235E-13   2.46283280884626E-16
      1.00000000000000E+03
     -1.83451084703028E+00   0.00000000000000E+00  -5.77297768931965E-12   2.29569114764818E-16  -1.92116382364093E-16
     -2.29569114782444E-16  -1.92119498538095E-16  -2.29569114782396E-16   7.59602327542059E-13   2.29569114782471E-16
      1.00000000000000E+03
     -2.16734682479300E+00   0.00000000000000E+00  -5.77297768931965E-12   2.13937544008510E-16  -1.82627906611480E-16
     -2.13937544030807E-16  -1.82628487871941E-16  -2.13937544030873E-16  -1.51920465508412E-13   2.13937544030812E-16
      1.00000000000000E+03
     -2.55010819922014E+00   0.00000000000000E+00  -5.77297768931965E-12   1.99694149453410E-16  -1.52628899908389E-16
     -1.99694149446069E-16  -1.52632191789066E-16  -1.99694149446026E-16   1.06344325855888E-12   1.99694149446047E-16
      1.00000000000000E+03
     -2.99028377981134E+00   0.00000000000000E+00  -5.77297768931965E-12   1.85985917875594E-16  -1.25144202106032E-16
     -1.85985917869781E-16  -1.25152632996849E-16  -1.85985917869635E-16   3.03840931016824E-13   1.85985917869596E-16
      1.00000000000000E+03
     -3.49648569749122E+00   0.00000000000000E+00  -5.77297768931965E-12   1.73524374443376E-16  -1.23980178269529E-16
     -1.73524374440080E-16  -1.23989918007727E-16  -1.73524374439991E-16   7.59602327542059E-13   1.73524374439984E-16
      1.00000000000000E+03
     -4.07861790282309E+00   0.00000000000000E+00  -5.77297768931965E-12   1.61965739206925E-16  -1.06728193471613E-16
     -1.61965739210858E-16  -1.06731521510328E-16  -1.61965739210844E-16  -1.06344325855888E-12   1.61965739210846E-16
      1.00000000000000E+03
     -4.74806993895473E+00   0.00000000000000E+00  -5.77297768931965E-12   1.51030287052594E-16  -8.42942369579515E-17
     -1.51030287040151E-16  -8.42970613169095E-17  -1.51030287040093E-16   1.82304558610094E-12   1.51030287040070E-16
      1.00000000000000E+03
     -5.51793978050612E+00   0.00000000000000E+00  -5.77297768931965E-12   1.40809607145956E-16  -7.02519656810102E-17
     -1.40809607135167E-16  -7.02531100923783E-17  -1.40809607135166E-16   1.51920465508412E-13   1.40809607135176E-16
      1.00000000000000E+03
     -6.40329009829022E+00   0.00000000000000E+00  -5.77297768931965E-12   1.31316612337639E-16  -6.08520464049472E-17
     -1.31316612363123E-16  -6.08595400816638E-17  -1.31316612363100E-16  -1.51920465508412E-13   1.31316612363084E-16
      1.00000000000000E+03
     -7.42144296374194E+00   0.00000000000000E+00  -5.77297768931965E-12   1.22489106648625E-16  -5.26874527300518E-17
     -1.22489106659709E-16  -5.26895097773045E-17  -1.22489106659751E-16   7.59602327542059E-13   1.22489106659758E-16
      1.00000000000000E+03
     -8.59231875901141E+00   0.00000000000000E+00  -5.77297768931965E-12   1.14273642904681E-16  -4.54584689234527E-17
     -1.14273642917185E-16  -4.54662293092551E-17  -1.14273642917182E-16   1.51920465508412E-13   1.14273642917143E-16
      1.00000000000000E+03
     -9.93882592357130E+00   0.00000000000000E+00  -5.77297768931965E-12   1.06626417406164E-16  -4.16472115060598E-17
     -1.06626417411092E-16  -4.16398060673393E-17  -1.06626417411115E-16  -4.55761396525235E-13   1.06626417411131E-16
      1.00000000000000E+03
     -1.14873091628152E+01   0.00000000000000E+00  -5.77297768931965E-12   9.94629247429795E-17  -4.32783384214755E-17
     -9.94629247557661E-17  -4.32764514078196E-17  -9.94629247557819E-17   1.51920465508412E-13   9.94629247557941E-17
      1.00000000000000E+03
     -1.32680648879456E+01   0.00000000000000E+00  -5.77297768931965E-12   9.27108532022965E-17  -3.53618741696605E-17
     -9.27108532246276E-17  -3.53655826369047E-17  -9.27108532245943E-17   0.00000000000000E+00   9.27108532246081E-17
      1.00000000000000E+03
     -1.53159339718457E+01   0.00000000000000E+00  -5.77297768931965E-12   8.65020220326105E-17  -2.66068908313479E-17
     -8.65020220450561E-17  -2.66164239407943E-17  -8.65020220450184E-17   1.51920465508412E-13   8.65020220450095E-17
      1.00000000000000E+03
     -1.76027211155340E+01   0.00000000000000E+00  -5.77297768931965E-12   8.08135520151796E-17  -3.02638790666627E-17
     -8.08135520325182E-17  -3.02699283911368E-17  -8.08135520324933E-17   1.21536372406729E-12   8.08135520324945E-17
      1.00000000000000E+03
     -2.02325263307756E+01   0.00000000000000E+00  -5.77297768931965E-12   7.55090802309718E-17  -2.11550025351440E-17
     -7.55090802432286E-17  -2.11566284346748E-17  -7.55090802432229E-17   2.27880698262618E-12   7.55090802432180E-17
      1.00000000000000E+03
     -2.31691421544621E+01   0.00000000000000E+00  -5.77297768931965E-12   7.06172102949012E-17  -1.84145629402999E-17
     -7.06172103080856E-17  -1.84139696922827E-17  -7.06172103080892E-17   0.00000000000000E+00   7.06172103080866E-17
      1.00000000000000E+03
     -2.64483631575787E+01   0.00000000000000E+00  -5.77297768931965E-12   6.61820898004112E-17  -2.16819676364539E-17
     -6.61820898167745E-17  -2.16808903823904E-17  -6.61820898167786E-17   1.51920465508412E-13   6.61820898167784E-17
      1.00000000000000E+03
     -3.01101599443922E+01   0.00000000000000E+00  -5.77297768931965E-12   6.20935048556260E-17  -1.80267715321946E-17
     -6.20935048569945E-17  -1.80353624898279E-17  -6.20935048569709E-17   7.59602327542059E-13   6.20935048569870E-17
      1.00000000000000E+03
     -3.41991663563339E+01   0.00000000000000E+00  -5.92489815482806E-12   5.83032689251691E-17  -1.40928916816344E-17
     -5.83032689482781E-17  -1.40934793279217E-17  -5.83032689482852E-17   6.07681862033647E-13   5.83032689482936E-17
      1.00000000000000E+03
     -3.87652235163355E+01   0.00000000000000E+00  -5.77297768931965E-12   5.47933121298928E-17  -1.23377685580135E-17
     -5.47933121475231E-17  -1.23357589074233E-17  -5.47933121475216E-17  -4.55761396525235E-13   5.47933121475304E-17
      1.00000000000000E+03
     -4.38639873450040E+01   0.00000000000000E+00  -5.77297768931965E-12   5.15375255334352E-17  -1.25159157130974E-17
     -5.15375255455792E-17  -1.25172979969756E-17  -5.15375255455786E-17   1.51920465508412E-13   5.15375255455951E-17
      1.00000000000000E+03
     -4.95576069536838E+01   0.00000000000000E+00  -5.77297768931965E-12   4.85036867726639E-17  -1.29526547544647E-17
     -4.85036867828003E-17  -1.29520478934222E-17  -4.85036867828017E-17   3.03840931016824E-13   4.85036867828127E-17
      1.00000000000000E+03
     -5.59154821833762E+01   0.00000000000000E+00  -5.77297768931965E-12   4.56758451248778E-17  -7.79565731440254E-18
     -4.56758451453936E-17  -7.79118765504037E-18  -4.56758451453995E-17   1.36728418957571E-12   4.56758451454182E-17
      1.00000000000000E+03
     -6.30151095231994E+01   0.00000000000000E+00  -5.77297768931965E-12   4.30615970939522E-17  -8.09196842269810E-18
     -4.30615971042421E-17  -8.09558821272947E-18  -4.30615971042360E-17   4.55761396525235E-13   4.30615971042603E-17
      1.00000000000000E+03
     -7.09430267193353E+01   0.00000000000000E+00  -5.77297768931965E-12   4.05900381343947E-17  -6.47623340613800E-18
     -4.05900381436594E-17  -6.47859589796117E-18  -4.05900381436578E-17   6.07681862033647E-13   4.05900381436816E-17
      1.00000000000000E+03
     -7.95316036818158E+01   0.00000000000000E+00  -5.62105722381124E-12   3.83574970013429E-17  -8.56396883366874E-18
     -3.83574970096910E-17  -8.57413043549629E-18  -3.83574970096821E-17  -4.55761396525235E-13   3.83574970097058E-17
      1.00000000000000E+03
     -8.88358953911698E+01   0.00000000000000E+00  -5.16529582728600E-12   3.62869597029353E-17  -4.52849238779137E-18
     -3.62869597312480E-17  -4.52867155393161E-18  -3.62869597312471E-17   7.59602327542059E-13   3.62869597312630E-17
      1.00000000000000E+03
     -9.89155447429699E+01   0.00000000000000E+00  -5.77297768931965E-12   3.43860735011119E-17  -4.54739454880793E-18
     -3.43860735250729E-17  -4.54766288369264E-18  -3.43860735250727E-17   1.51920465508412E-13   3.43860735250897E-17
      1.00000000000000E+03
     -1.09835164874087E+02   0.00000000000000E+00  -3.94993210321871E-12   3.26434261015059E-17  -6.11516405572593E-18
     -3.26434261304641E-17  -6.11506333440191E-18  -3.26434261304647E-17   9.11522793050471E-13   3.26434261304777E-17
      1.00000000000000E+03
     -1.21664753349463E+02   0.00000000000000E+00  -2.73456837915141E-12   3.10273200391985E-17  -6.40483149564612E-18
     -3.10273200625518E-17  -6.40432927063630E-18  -3.10273200625518E-17  -9.11522793050471E-13   3.10273200625679E-17
      1.00000000000000E+03
     -1.33664753349463E+02   0.00000000000000E+00  -7.74794374092900E-12   2.96560828566791E-17  -4.96233011666370E-18
     -2.96560828826507E-17  -4.95842899081618E-18  -2.96560828826512E-17  -6.07681862033647E-13   2.96560828826745E-17
      1.00000000000000E+03
     -1.45664753349463E+02   0.00000000000000E+00  -6.22873908584488E-12   2.90284429728000E-17  -2.13136469832151E-18
     -2.90284430107543E-17  -2.12697231488221E-18  -2.90284430107544E-17   6.07681862033647E-13   2.90284430107756E-17
      1.00000000000000E+03
     -1.57664753349463E+02   0.00000000000000E+00  -5.62105722381124E-12   2.89020206196963E-17  -1.34308082031253E-18
     -2.89020206402476E-17  -1.33801343321889E-18  -2.89020206402475E-17   6.07681862033647E-13   2.89020206402736E-17
      1.00000000000000E+03
     -1.69664753349463E+02   0.00000000000000E+00  -7.59602327542059E-12   2.88559487805454E-17  -8.42864145542734E-19
     -2.88559488171347E-17  -8.38431415570623E-19  -2.88559488171347E-17   0.00000000000000E+00   2.88559488171599E-17
      1.00000000000000E+03
     -1.81664753349463E+02   0.00000000000000E+00  -2.73456837915141E-12   2.88370056310837E-17  -7.70648452561502E-19
     -2.88370056471205E-17  -7.69446752043174E-19  -2.88370056471205E-17   1.06344325855888E-12   2.88370056471364E-17
      1.00000000000000E+03
     -1.93664753349463E+02   0.00000000000000E+00   1.06344325855888E-12   2.88312455119673E-17  -6.66150088726355E-19
     -2.88312455165380E-17  -6.62342584897699E-19  -2.88312455165380E-17  -4.55761396525235E-13   2.88312455165672E-17
      1.00000000000000E+03
     -2.05664753349463E+02   0.00000000000000E+00  -4.25377303423553E-12   2.88284601598125E-17  -7.74131661098701E-19
     -2.88284601837174E-17  -7.75230146976224E-19  -2.88284601837174E-17   9.11522793050471E-13   2.88284601837440E-17
      1.00000000000000E+03
     -2.17664753349463E+02   0.00000000000000E+00   1.51920465508412E-12   2.88260193099017E-17  -7.48041508808459E-19
     -2.88260193397963E-17  -7.47363741068103E-19  -2.88260193397963E-17   6.07681862033647E-13   2.88260193398267E-17
      1.00000000000000E+03
     -2.29664753349463E+02   0.00000000000000E+00  -9.11522793050471E-13   2.88236108354278E-17  -6.50106439824491E-19
     -2.88236108331886E-17  -6.47667593982424E-19  -2.88236108331886E-17  -4.55761396525235E-13   2.88236108331991E-17
      1.00000000000000E+03
     -2.41664753349463E+02   0.00000000000000E+00   3.94993210321871E-12   2.88211344000120E-17  -6.29464650858465E-19
     -2.88211343731903E-17  -6.32111319862938E-19  -2.88211343731903E-17   6.07681862033647E-13   2.88211343732152E-17
      1.00000000000000E+03
     -2.53664753349463E+02   0.00000000000000E+00   9.72290979253836E-12   2.88182730992845E-17  -6.23203483563208E-19
     -2.88182731124507E-17  -6.22249942502356E-19  -2.88182731124508E-17   1.51920465508412E-12   2.88182731124759E-17
      1.00000000000000E+03
     -2.65664753349463E+02   0.00000000000000E+00   6.98834141338694E-12   2.88150489233307E-17  -6.24102680241842E-19
     -2.88150489146277E-17  -6.19757271955194E-19  -2.88150489146278E-17   9.11522793050471E-13   2.88150489146545E-17
      1.00000000000000E+03
     -2.77664753349463E+02   0.00000000000000E+00   8.50754606847106E-12   2.88110690582424E-17  -6.23064397664268E-19
     -2.88110690732216E-17  -6.19087955768343E-19  -2.88110690732218E-17  -1.51920465508412E-13   2.88110690732515E-17
      1.00000000000000E+03
     -2.89664753349463E+02   0.00000000000000E+00  -5.16529582728600E-12   2.88058156393734E-17  -6.24563724863498E-19
     -2.88058156702759E-17  -6.28064014277491E-19  -2.88058156702758E-17   1.51920465508412E-13   2.88058156702973E-17
      1.00000000000000E+03
     -3.00000000000000E+02   0.00000000000000E+00   1.21536372406729E-12   2.88001178493922E-17  -6.25830290588162E-19
     -2.88001179222248E-17  -6.22530301392050E-19  -2.88001179222248E-17   4.55761396525235E-13   2.88001179222495E-17
}
