DF-ISE text

Info {
  version   = 1.0
  type      = xyplot
  datasets  = [
    "time"
    "BOT_electrode OuterVoltage" "BOT_electrode InnerVoltage" "BOT_electrode QuasiFermiPotential" "BOT_electrode DisplacementCurrent" "BOT_electrode eCurrent"
    "BOT_electrode hCurrent" "BOT_electrode TotalCurrent" "BOT_electrode Charge" "IMP1_electrode OuterVoltage" "IMP1_electrode InnerVoltage"
    "IMP1_electrode QuasiFermiPotential" "IMP1_electrode DisplacementCurrent" "IMP1_electrode eCurrent" "IMP1_electrode hCurrent" "IMP1_electrode TotalCurrent"
    "IMP1_electrode Charge" ]
  functions = [
    Time
    OuterVoltage InnerVoltage QuasiFermiPotential DisplacementCurrent eCurrent
    hCurrent TotalCurrent Charge OuterVoltage InnerVoltage
    QuasiFermiPotential DisplacementCurrent eCurrent hCurrent TotalCurrent
    Charge ]
}

Data {
      0.00000000000000E+00
      0.00000000000000E+00   0.00000000000000E+00   0.00000000000000E+00   0.00000000000000E+00   1.99126977429181E-20
      9.27263053994132E-29   1.99126978356444E-20  -5.29716139635731E-16   0.00000000000000E+00   0.00000000000000E+00
      0.00000000000000E+00   0.00000000000000E+00  -1.99126977428427E-20  -9.28016970712040E-29  -1.99126978356444E-20
      5.29716139635733E-16
      0.00000000000000E+00
      0.00000000000000E+00   0.00000000000000E+00   0.00000000000000E+00   0.00000000000000E+00   3.33470495729148E-21
      9.07197574409398E-31   3.33470495819868E-21  -5.29716139635877E-16   0.00000000000000E+00   0.00000000000000E+00
      0.00000000000000E+00   0.00000000000000E+00  -3.33470495737946E-21  -8.19154106577625E-31  -3.33470495819861E-21
      5.29716139635876E-16
      0.00000000000000E+00
      0.00000000000000E+00   0.00000000000000E+00   0.00000000000000E+00   0.00000000000000E+00   4.77707779351299E-21
      8.33474514430298E-31   4.77707779434646E-21  -5.29716139635876E-16   0.00000000000000E+00   0.00000000000000E+00
      0.00000000000000E+00   0.00000000000000E+00  -4.77707779360582E-21  -7.40626566697395E-31  -4.77707779434644E-21
      5.29716139635875E-16
      1.00000000000000E-07
     -3.00000000000000E-05  -2.99999999999606E-05   0.00000000000000E+00   0.00000000000000E+00  -7.16804059127264E-22
     -1.07197710866175E-20  -1.14365751457447E-20  -5.29724858229500E-16   0.00000000000000E+00   0.00000000000000E+00
      0.00000000000000E+00   0.00000000000000E+00   1.14065912529947E-20   2.99838927500678E-23   1.14365751457447E-20
      5.29724858229495E-16
      2.21666666666667E-07
     -6.65000000000000E-05  -6.65000000000092E-05   0.00000000000000E+00   0.00000000000000E+00  -2.25879489342847E-22
     -2.37522575471153E-20  -2.39781370364581E-20  -5.29735465665768E-16   0.00000000000000E+00   0.00000000000000E+00
      0.00000000000000E+00   0.00000000000000E+00   2.39117207191546E-20   6.64163173035095E-23   2.39781370364581E-20
      5.29735465665763E-16
      3.73750000000000E-07
     -1.12125000000000E-04  -1.12124999999955E-04   0.00000000000000E+00   0.00000000000000E+00  -3.71903978174911E-21
     -4.00275960735434E-20  -4.37466358552925E-20  -5.29748724674054E-16   0.00000000000000E+00   0.00000000000000E+00
      0.00000000000000E+00   0.00000000000000E+00   4.36347530562934E-20   1.11882798998873E-22   4.37466358552923E-20
      5.29748724674047E-16
      5.63854166666667E-07
     -1.69156250000000E-04  -1.69156249999956E-04   0.00000000000000E+00   0.00000000000000E+00  -1.40036852632950E-20
     -6.03479413099775E-20  -7.43516265732726E-20  -5.29765297985955E-16   0.00000000000000E+00   0.00000000000000E+00
      0.00000000000000E+00   0.00000000000000E+00   7.41830260616940E-20   1.68600511578125E-22   7.43516265732722E-20
      5.29765297985950E-16
      8.01484375000000E-07
     -2.40445312500000E-04  -2.40445312500027E-04   0.00000000000000E+00   0.00000000000000E+00   3.52695801047079E-21
     -8.57112014466824E-20  -8.21842434362116E-20  -5.29786013925251E-16   0.00000000000000E+00   0.00000000000000E+00
      0.00000000000000E+00   0.00000000000000E+00   8.19449257023094E-20   2.39317733902007E-22   8.21842434362114E-20
      5.29786013925240E-16
      1.09852213541667E-06
     -3.29556640625000E-04  -3.29556640625046E-04   0.00000000000000E+00   0.00000000000000E+00  -8.41564564819605E-21
     -1.17357312676818E-19  -1.25772958325014E-19  -5.29811907754928E-16   0.00000000000000E+00   0.00000000000000E+00
      0.00000000000000E+00   0.00000000000000E+00   1.25445524504632E-19   3.27433820382256E-22   1.25772958325014E-19
      5.29811907754923E-16
      1.46981933593750E-06
     -4.40945800781250E-04  -4.40945800781274E-04   0.00000000000000E+00   0.00000000000000E+00  -4.46381658284384E-21
     -1.56824610250576E-19  -1.61288426833420E-19  -5.29844273332447E-16   0.00000000000000E+00   0.00000000000000E+00
      0.00000000000000E+00   0.00000000000000E+00   1.60851284353890E-19   4.37142479529692E-22   1.61288426833420E-19
      5.29844273332448E-16
      1.93394083658854E-06
     -5.80182250976562E-04  -5.80182250976582E-04   0.00000000000000E+00   0.00000000000000E+00  -1.76510515706638E-21
     -2.06018015674941E-19  -2.07783120832007E-19  -5.29884727634046E-16   0.00000000000000E+00   0.00000000000000E+00
      0.00000000000000E+00   0.00000000000000E+00   2.07209521543992E-19   5.73599288015233E-22   2.07783120832007E-19
      5.29884727634045E-16
      2.51409271240234E-06
     -7.54227813720703E-04  -7.54227813720717E-04   0.00000000000000E+00   0.00000000000000E+00  -1.19200501225723E-20
     -2.67290763156923E-19  -2.79210813279495E-19  -5.29935291340475E-16   0.00000000000000E+00   0.00000000000000E+00
      0.00000000000000E+00   0.00000000000000E+00   2.78467698070200E-19   7.43115209296117E-22   2.79210813279496E-19
      5.29935291340472E-16
      3.23928255716960E-06
     -9.71784767150879E-04  -9.71784767150863E-04   0.00000000000000E+00   0.00000000000000E+00  -1.97732639709353E-21
     -3.43541168175284E-19  -3.45518494572377E-19  -5.29998489460492E-16   0.00000000000000E+00   0.00000000000000E+00
      0.00000000000000E+00   0.00000000000000E+00   3.44565121594810E-19   9.53372977566636E-22   3.45518494572377E-19
      5.29998489460485E-16
      4.14576986312866E-06
     -1.24373095893860E-03  -1.24373095893861E-03   0.00000000000000E+00   0.00000000000000E+00  -2.34758490758317E-20
     -4.38325345862186E-19  -4.61801194938018E-19  -5.30077476940766E-16   0.00000000000000E+00   0.00000000000000E+00
      0.00000000000000E+00   0.00000000000000E+00   4.60587535588935E-19   1.21365934908342E-21   4.61801194938019E-19
      5.30077476940769E-16
      5.27887899557749E-06
     -1.58366369867325E-03  -1.58366369867321E-03   0.00000000000000E+00   0.00000000000000E+00  -2.90246309390261E-20
     -5.55985573161640E-19  -5.85010204100666E-19  -5.30176195414390E-16   0.00000000000000E+00   0.00000000000000E+00
      0.00000000000000E+00   0.00000000000000E+00   5.83475106143646E-19   1.53509795702545E-21   5.85010204100672E-19
      5.30176195414386E-16
      6.69526541113853E-06
     -2.00857962334156E-03  -2.00857962334155E-03   0.00000000000000E+00   0.00000000000000E+00  -1.65197232008080E-20
     -7.01791811654554E-19  -7.18311534855362E-19  -5.30299568725480E-16   0.00000000000000E+00   0.00000000000000E+00
      0.00000000000000E+00   0.00000000000000E+00   7.16380679724235E-19   1.93085513112783E-21   7.18311534855363E-19
      5.30299568725478E-16
      8.46574843058983E-06
     -2.53972452917695E-03  -2.53972452917693E-03   0.00000000000000E+00   0.00000000000000E+00  -6.52635852375845E-21
     -8.82090285538100E-19  -8.88616644061858E-19  -5.30453746696259E-16   0.00000000000000E+00   0.00000000000000E+00
      0.00000000000000E+00   0.00000000000000E+00   8.86200372030749E-19   2.41627203110720E-21   8.88616644061856E-19
      5.30453746696263E-16
      1.06788522049040E-05
     -3.20365566147119E-03  -3.20365566147122E-03   0.00000000000000E+00   0.00000000000000E+00   2.70537588047201E-20
     -1.10444731977249E-18  -1.07739356096777E-18  -5.30646408843657E-16   0.00000000000000E+00   0.00000000000000E+00
      0.00000000000000E+00   0.00000000000000E+00   1.07438471142306E-18   3.00884954469885E-21   1.07739356096776E-18
      5.30646408843649E-16
      1.34452319227966E-05
     -4.03356957683899E-03  -4.03356957683899E-03   0.00000000000000E+00   0.00000000000000E+00   1.44790762368448E-19
     -1.37776816020910E-18  -1.23297739784065E-18  -5.30887142487113E-16   0.00000000000000E+00   0.00000000000000E+00
      0.00000000000000E+00   0.00000000000000E+00   1.22924942073487E-18   3.72797710578239E-21   1.23297739784065E-18
      5.30887142487109E-16
      1.69032065701624E-05
     -5.07096197104873E-03  -5.07096197104872E-03   0.00000000000000E+00   0.00000000000000E+00   4.37413951044789E-19
     -1.71235854119437E-18  -1.27494459014958E-18  -5.31187913005143E-16   0.00000000000000E+00   0.00000000000000E+00
      0.00000000000000E+00   0.00000000000000E+00   1.27035033911217E-18   4.59425103741133E-21   1.27494459014959E-18
      5.31187913005143E-16
      2.12256748793697E-05
     -6.36770246381091E-03  -6.36770246381092E-03   0.00000000000000E+00   0.00000000000000E+00   1.13804581378044E-18
     -2.11988109056673E-18  -9.81835276786284E-19  -5.31563647989273E-16   0.00000000000000E+00   0.00000000000000E+00
      0.00000000000000E+00   0.00000000000000E+00   9.76207096259164E-19   5.62818052712741E-21   9.81835276786291E-19
      5.31563647989267E-16
      2.66287602658788E-05
     -7.98862807976364E-03  -7.98862807976363E-03   0.00000000000000E+00   0.00000000000000E+00   2.88108645029183E-18
     -2.61314024026015E-18   2.67946210031687E-19  -5.32032961807791E-16   0.00000000000000E+00   0.00000000000000E+00
      0.00000000000000E+00   0.00000000000000E+00  -2.74794252625116E-19   6.84804259343034E-21  -2.67946210031686E-19
      5.32032961807789E-16
      3.33826169990152E-05
     -1.00147850997046E-02  -1.00147850997046E-02   0.00000000000000E+00   0.00000000000000E+00  -1.51643940157009E-19
     -3.20561174509046E-18  -3.35725568524747E-18  -5.32619052696212E-16   0.00000000000000E+00   0.00000000000000E+00
      0.00000000000000E+00   0.00000000000000E+00   3.34898908525819E-18   8.26659998928917E-21   3.35725568524748E-18
      5.32619052696210E-16
      4.15998093576644E-05
     -1.24799428072993E-02  -1.24799428072992E-02   0.00000000000000E+00   0.00000000000000E+00  -1.77656633985108E-19
     -3.89231736267877E-18  -4.06997399666388E-18  -5.33331309903848E-16   0.00000000000000E+00   0.00000000000000E+00
      0.00000000000000E+00   0.00000000000000E+00   4.06012833187270E-18   9.84566479116553E-21   4.06997399666387E-18
      5.33331309903844E-16
      5.15973933940210E-05
     -1.54792180182063E-02  -1.54792180182063E-02   0.00000000000000E+00   0.00000000000000E+00  -2.15330306369811E-19
     -4.68065576140221E-18  -4.89598606777202E-18  -5.34196686942304E-16   0.00000000000000E+00   0.00000000000000E+00
      0.00000000000000E+00   0.00000000000000E+00   4.88441623273008E-18   1.15698350419272E-20   4.89598606777201E-18
      5.34196686942303E-16
      6.37611206382549E-05
     -1.91283361914765E-02  -1.91283361914765E-02   0.00000000000000E+00   0.00000000000000E+00  -2.49183246449864E-19
     -5.57564760369184E-18  -5.82483085014171E-18  -5.35247803313944E-16   0.00000000000000E+00   0.00000000000000E+00
      0.00000000000000E+00   0.00000000000000E+00   5.81142201004388E-18   1.34088400978406E-20   5.82483085014172E-18
      5.35247803313946E-16
      7.85603221187394E-05
     -2.35680966356218E-02  -2.35680966356218E-02   0.00000000000000E+00   0.00000000000000E+00  -2.79713400701867E-19
     -6.57889817311650E-18  -6.85861157381837E-18  -5.36524097040629E-16   0.00000000000000E+00   0.00000000000000E+00
      0.00000000000000E+00   0.00000000000000E+00   6.84329637726526E-18   1.53151965531145E-20   6.85861157381838E-18
      5.36524097040631E-16
      9.65660172533289E-05
     -2.89698051759987E-02  -2.89698051759987E-02   0.00000000000000E+00   0.00000000000000E+00  -3.19297957813886E-19
     -7.68779900141238E-18  -8.00709695922626E-18  -5.38073198083106E-16   0.00000000000000E+00   0.00000000000000E+00
      0.00000000000000E+00   0.00000000000000E+00   7.98987295892256E-18   1.72240003037174E-20   8.00709695922628E-18
      5.38073198083101E-16
      1.18472946333746E-04
     -3.55418839001238E-02  -3.55418839001237E-02   0.00000000000000E+00   0.00000000000000E+00  -3.44676310906206E-19
     -8.89547634065418E-18  -9.24015265156039E-18  -5.39952562509625E-16   0.00000000000000E+00   0.00000000000000E+00
      0.00000000000000E+00   0.00000000000000E+00   9.22109638443090E-18   1.90562671294406E-20   9.24015265156034E-18
      5.39952562509620E-16
      1.45126376714920E-04
     -4.35379130144761E-02  -4.35379130144762E-02   0.00000000000000E+00   0.00000000000000E+00  -3.69503256959100E-19
     -1.01922522751357E-17  -1.05617555320948E-17  -5.42231416128920E-16   0.00000000000000E+00   0.00000000000000E+00
      0.00000000000000E+00   0.00000000000000E+00   1.05410285289445E-17   2.07270031502809E-20   1.05617555320948E-17
      5.42231416128921E-16
      1.77554717012016E-04
     -5.32664151036047E-02  -5.32664151036048E-02   0.00000000000000E+00   0.00000000000000E+00  -3.97832776299627E-19
     -1.15695395109899E-17  -1.19673722872895E-17  -5.44993068622135E-16   0.00000000000000E+00   0.00000000000000E+00
      0.00000000000000E+00   0.00000000000000E+00   1.19452142021296E-17   2.21580851599251E-20   1.19673722872895E-17
      5.44993068622135E-16
      2.17009197706815E-04
     -6.51027593120446E-02  -6.51027593120446E-02   0.00000000000000E+00   0.00000000000000E+00  -4.17608660384674E-19
     -1.30267801123085E-17  -1.34443887726931E-17  -5.48337674438058E-16   0.00000000000000E+00   0.00000000000000E+00
      0.00000000000000E+00   0.00000000000000E+00   1.34210948412069E-17   2.32939314862710E-20   1.34443887726932E-17
      5.48337674438053E-16
      2.65012149218821E-04
     -7.95036447656463E-02  -7.95036447656461E-02   0.00000000000000E+00   0.00000000000000E+00  -3.87013946724848E-19
     -1.45805422304412E-17  -1.49675561771661E-17  -5.52385527665291E-16   0.00000000000000E+00   0.00000000000000E+00
      0.00000000000000E+00   0.00000000000000E+00   1.49434408167710E-17   2.41153603952311E-20   1.49675561771663E-17
      5.52385527665293E-16
      3.23415740225095E-04
     -9.70247220675285E-02  -9.70247220675284E-02   0.00000000000000E+00   0.00000000000000E+00  -2.46070753138868E-19
     -1.62714479546170E-17  -1.65175187077559E-17  -5.57280959074201E-16   0.00000000000000E+00   0.00000000000000E+00
      0.00000000000000E+00   0.00000000000000E+00   1.64928732336320E-17   2.46454741239603E-20   1.65175187077560E-17
      5.57280959074196E-16
      3.94473442616062E-04
     -1.18342032784818E-01  -1.18342032784819E-01   0.00000000000000E+00   0.00000000000000E+00   3.54075047276602E-19
     -1.81609848750606E-17  -1.78069098277840E-17  -5.63196790721457E-16   0.00000000000000E+00   0.00000000000000E+00
      0.00000000000000E+00   0.00000000000000E+00   1.77819669687435E-17   2.49428590402267E-20   1.78069098277837E-17
      5.63196790721457E-16
      4.80926980525071E-04
     -1.44278094157521E-01  -1.44278094157522E-01   0.00000000000000E+00   0.00000000000000E+00   2.78229024602141E-18
     -2.03177337765548E-17  -1.75354435305334E-17  -5.70338987584333E-16   0.00000000000000E+00   0.00000000000000E+00
      0.00000000000000E+00   0.00000000000000E+00   1.75103606528957E-17   2.50828776376521E-20   1.75354435305333E-17
      5.70338987584332E-16
      5.86112118314366E-04
     -1.75833635494310E-01  -1.75833635494309E-01   0.00000000000000E+00   0.00000000000000E+00   1.24794993900475E-17
     -2.28260828106213E-17  -1.03465834205738E-17  -5.78950571934848E-16   0.00000000000000E+00   0.00000000000000E+00
      0.00000000000000E+00   0.00000000000000E+00   1.03214479134863E-17   2.51355070873614E-20   1.03465834205736E-17
      5.78950571934843E-16
      7.14087369291341E-04
     -2.14226210787402E-01  -2.14226210787402E-01   0.00000000000000E+00   0.00000000000000E+00  -4.57620818410521E-19
     -2.58455959056605E-17  -2.63032167240710E-17  -5.89313484993611E-16   0.00000000000000E+00   0.00000000000000E+00
      0.00000000000000E+00   0.00000000000000E+00   2.62780663271449E-17   2.51503969259378E-20   2.63032167240708E-17
      5.89313484993608E-16
      8.65524749614095E-04
     -2.59657424884229E-01  -2.59657424884229E-01   0.00000000000000E+00   0.00000000000000E+00  -4.53248411860938E-19
     -2.94275135091691E-17  -2.98807619210301E-17  -6.01410606986251E-16   0.00000000000000E+00   0.00000000000000E+00
      0.00000000000000E+00   0.00000000000000E+00   2.98556085849685E-17   2.51533360620335E-20   2.98807619210305E-17
      6.01410606986248E-16
      1.04472564966269E-03
     -3.13417694898806E-01  -3.13417694898805E-01   0.00000000000000E+00   0.00000000000000E+00  -4.58193201145201E-19
     -3.32747366311851E-17  -3.37329298323303E-17  -6.15492429138250E-16   0.00000000000000E+00   0.00000000000000E+00
      0.00000000000000E+00   0.00000000000000E+00   3.37077760889312E-17   2.51537433992110E-20   3.37329298323304E-17
      6.15492429138247E-16
      1.25678004805352E-03
     -3.77034014416056E-01  -3.77034014416057E-01   0.00000000000000E+00   0.00000000000000E+00  -4.52913406362592E-19
     -3.67761387273545E-17  -3.72290521337171E-17  -6.31848504008588E-16   0.00000000000000E+00   0.00000000000000E+00
      0.00000000000000E+00   0.00000000000000E+00   3.72038983203448E-17   2.51538133718601E-20   3.72290521337167E-17
      6.31848504008587E-16
      1.50771108614934E-03
     -4.52313325844803E-01  -4.52313325844803E-01   0.00000000000000E+00   0.00000000000000E+00  -4.55766162321620E-19
     -3.98579783550987E-17  -4.03137445174204E-17  -6.50823107068236E-16   0.00000000000000E+00   0.00000000000000E+00
      0.00000000000000E+00   0.00000000000000E+00   4.02885906605917E-17   2.51538568285303E-20   4.03137445174202E-17
      6.50823107068231E-16
      1.80464614789606E-03
     -5.41393844368819E-01  -5.41393844368820E-01   0.00000000000000E+00   0.00000000000000E+00  -4.47011184306006E-19
     -4.37968657867216E-17  -4.42438769710276E-17  -6.72791950519606E-16   0.00000000000000E+00   0.00000000000000E+00
      0.00000000000000E+00   0.00000000000000E+00   4.42187230665552E-17   2.51539044725748E-20   4.42438769710278E-17
      6.72791950519610E-16
      2.15601930429635E-03
     -6.46805791288905E-01  -6.46805791288904E-01   0.00000000000000E+00   0.00000000000000E+00  -4.63913162086505E-19
     -4.99321452221537E-17  -5.03960583842402E-17  -6.98104259981958E-16   0.00000000000000E+00   0.00000000000000E+00
      0.00000000000000E+00   0.00000000000000E+00   5.03709044248460E-17   2.51539593943825E-20   5.03960583842404E-17
      6.98104259981958E-16
      2.57181087270336E-03
     -7.71543261811007E-01  -7.71543261811008E-01   0.00000000000000E+00   0.00000000000000E+00  -4.57976761272841E-19
     -5.55465050320343E-17  -5.60044817933072E-17  -7.27125333664314E-16   0.00000000000000E+00   0.00000000000000E+00
      0.00000000000000E+00   0.00000000000000E+00   5.59793277706324E-17   2.51540226751654E-20   5.60044817933076E-17
      7.27125333664314E-16
      3.06383089531831E-03
     -9.19149268595494E-01  -9.19149268595492E-01   0.00000000000000E+00   0.00000000000000E+00  -4.43834118305899E-19
     -6.03172780804197E-17  -6.07611121987256E-17  -7.60349022049165E-16   0.00000000000000E+00   0.00000000000000E+00
      0.00000000000000E+00   0.00000000000000E+00   6.07359581030522E-17   2.51540956741402E-20   6.07611121987263E-17
      7.60349022049162E-16
      3.64605458874601E-03
     -1.09381637662380E+00  -1.09381637662380E+00   0.00000000000000E+00   0.00000000000000E+00  -4.26372281801669E-19
     -6.88846008603935E-17  -6.93109731421952E-17  -7.98213503475317E-16   0.00000000000000E+00   0.00000000000000E+00
      0.00000000000000E+00   0.00000000000000E+00   6.92858189623726E-17   2.51541798227782E-20   6.93109731421954E-17
      7.98213503475309E-16
      4.33501929263545E-03
     -1.30050578779064E+00  -1.30050578779063E+00   0.00000000000000E+00   0.00000000000000E+00  -4.45750969283109E-19
     -7.53866134000853E-17  -7.58323643693684E-17  -8.41115500990239E-16   0.00000000000000E+00   0.00000000000000E+00
      0.00000000000000E+00   0.00000000000000E+00   7.58072100928292E-17   2.51542765392763E-20   7.58323643693685E-17
      8.41115500990243E-16
      5.15029419223796E-03
     -1.54508825767139E+00  -1.54508825767139E+00   0.00000000000000E+00   0.00000000000000E+00   8.65526481620579E-20
     -8.43689254666585E-17  -8.42823728184964E-17  -8.89622364575450E-16   0.00000000000000E+00   0.00000000000000E+00
      0.00000000000000E+00   0.00000000000000E+00   8.42572184306453E-17   2.51543878519322E-20   8.42823728184972E-17
      8.89622364575456E-16
      6.11503615676760E-03
     -1.83451084703028E+00  -1.83451084703027E+00   0.00000000000000E+00   0.00000000000000E+00  -4.54789489794056E-19
     -9.26906951377978E-17  -9.31454846275919E-17  -9.44083141884662E-16   0.00000000000000E+00   0.00000000000000E+00
      0.00000000000000E+00   0.00000000000000E+00   9.31203301121051E-17   2.51545154872219E-20   9.31454846275923E-17
      9.44083141884669E-16
      7.22448941597668E-03
     -2.16734682479300E+00  -2.16734682479300E+00   0.00000000000000E+00   0.00000000000000E+00  -4.58070793150467E-19
     -1.03614146610081E-16  -1.04072217403232E-16  -1.00339507723227E-15   0.00000000000000E+00   0.00000000000000E+00
      0.00000000000000E+00   0.00000000000000E+00   1.04047062745422E-16   2.51546578089965E-20   1.04072217403231E-16
      1.00339507723227E-15
      8.50036066406712E-03
     -2.55010819922014E+00  -2.55010819922014E+00   0.00000000000000E+00   0.00000000000000E+00  -4.57130329420950E-19
     -1.11939748024120E-16  -1.12396878353541E-16  -1.06769429347428E-15   0.00000000000000E+00   0.00000000000000E+00
      0.00000000000000E+00   0.00000000000000E+00   1.12371723537502E-16   2.51548160382337E-20   1.12396878353541E-16
      1.06769429347428E-15
      9.96761259937113E-03
     -2.99028377981134E+00  -2.99028377981133E+00   0.00000000000000E+00   0.00000000000000E+00  -4.55162767355025E-19
     -1.24599376300119E-16  -1.25054539067474E-16  -1.13727629687179E-15   0.00000000000000E+00   0.00000000000000E+00
      0.00000000000000E+00   0.00000000000000E+00   1.25029384075651E-16   2.51549918239692E-20   1.25054539067475E-16
      1.13727629687179E-15
      1.16549523249707E-02
     -3.49648569749122E+00  -3.49648569749122E+00   0.00000000000000E+00   0.00000000000000E+00  -4.61029215563594E-19
     -1.36537382566838E-16  -1.36998411782401E-16  -1.21240553064428E-15   0.00000000000000E+00   0.00000000000000E+00
      0.00000000000000E+00   0.00000000000000E+00   1.36973256595654E-16   2.51551867477315E-20   1.36998411782402E-16
      1.21240553064428E-15
      1.35953930094103E-02
     -4.07861790282309E+00  -4.07861790282308E+00   0.00000000000000E+00   0.00000000000000E+00  -4.66070133212237E-19
     -1.47658661110514E-16  -1.48124731243726E-16  -1.29332690670786E-15   0.00000000000000E+00   0.00000000000000E+00
      0.00000000000000E+00   0.00000000000000E+00   1.48099575841360E-16   2.51554023668575E-20   1.48124731243727E-16
      1.29332690670787E-15
      1.58268997965158E-02
     -4.74806993895473E+00  -4.74806993895473E+00   0.00000000000000E+00   0.00000000000000E+00  -4.51965310047505E-19
     -1.61382859493442E-16  -1.61834824803489E-16  -1.38039052727307E-15   0.00000000000000E+00   0.00000000000000E+00
      0.00000000000000E+00   0.00000000000000E+00   1.61809669162931E-16   2.51556405585233E-20   1.61834824803489E-16
      1.38039052727307E-15
      1.83931326016871E-02
     -5.51793978050612E+00  -5.51793978050612E+00   0.00000000000000E+00   0.00000000000000E+00  -4.53023318329906E-19
     -1.76894990010985E-16  -1.77348013329315E-16  -1.47397990453781E-15   0.00000000000000E+00   0.00000000000000E+00
      0.00000000000000E+00   0.00000000000000E+00   1.77322857425910E-16   2.51559034042816E-20   1.77348013329315E-16
      1.47397990453781E-15
      2.13443003276341E-02
     -6.40329009829022E+00  -6.40329009829021E+00   0.00000000000000E+00   0.00000000000000E+00  -4.59414915502684E-19
     -1.93217061790146E-16  -1.93676476705649E-16  -1.57450539209443E-15   0.00000000000000E+00   0.00000000000000E+00
      0.00000000000000E+00   0.00000000000000E+00   1.93651320512393E-16   2.51561932572512E-20   1.93676476705650E-16
      1.57450539209442E-15
      2.47381432124731E-02
     -7.42144296374194E+00  -7.42144296374195E+00   0.00000000000000E+00   0.00000000000000E+00  -4.64425122041371E-19
     -2.10184889204142E-16  -2.10649314326184E-16  -1.68242556245399E-15   0.00000000000000E+00   0.00000000000000E+00
      0.00000000000000E+00   0.00000000000000E+00   2.10624157813268E-16   2.51565129139813E-20   2.10649314326182E-16
      1.68242556245401E-15
      2.86410625300380E-02
     -8.59231875901141E+00  -8.59231875901141E+00   0.00000000000000E+00   0.00000000000000E+00  -4.61538270052879E-19
     -2.27842071744525E-16  -2.28303610014578E-16  -1.79824984805314E-15   0.00000000000000E+00   0.00000000000000E+00
      0.00000000000000E+00   0.00000000000000E+00   2.28278453148787E-16   2.51568657908699E-20   2.28303610014578E-16
      1.79824984805315E-15
      3.31294197452377E-02
     -9.93882592357130E+00  -9.93882592357128E+00   0.00000000000000E+00   0.00000000000000E+00  -4.51076004353465E-19
     -2.46431843950000E-16  -2.46882919954354E-16  -1.92253708393419E-15   0.00000000000000E+00   0.00000000000000E+00
      0.00000000000000E+00   0.00000000000000E+00   2.46857762698197E-16   2.51572561553192E-20   2.46882919954353E-16
      1.92253708393420E-15
      3.82910305427173E-02
     -1.14873091628152E+01  -1.14873091628152E+01   0.00000000000000E+00   0.00000000000000E+00  -4.46472706332246E-19
     -2.67422433401462E-16  -2.67868906107795E-16  -2.05589121304929E-15   0.00000000000000E+00   0.00000000000000E+00
      0.00000000000000E+00   0.00000000000000E+00   2.67843748418377E-16   2.51576894188712E-20   2.67868906107796E-16
      2.05589121304930E-15
      4.42268829598188E-02
     -1.32680648879456E+01  -1.32680648879456E+01   0.00000000000000E+00   0.00000000000000E+00  -4.57622110995396E-19
     -2.91737248727050E-16  -2.92194870838046E-16  -2.19894128853910E-15   0.00000000000000E+00   0.00000000000000E+00
      0.00000000000000E+00   0.00000000000000E+00   2.92169712665591E-16   2.51581724539861E-20   2.92194870838045E-16
      2.19894128853911E-15
      5.10531132394855E-02
     -1.53159339718457E+01  -1.53159339718457E+01   0.00000000000000E+00   0.00000000000000E+00  -4.53442119511962E-19
     -3.14070891907700E-16  -3.14524334027212E-16  -2.35237539680446E-15   0.00000000000000E+00   0.00000000000000E+00
      0.00000000000000E+00   0.00000000000000E+00   3.14499175313061E-16   2.51587141509552E-20   3.14524334027212E-16
      2.35237539680448E-15
      5.86757370517801E-02
     -1.76027211155340E+01  -1.76027211155340E+01   0.00000000000000E+00   0.00000000000000E+00  -4.56099578960133E-19
     -3.40790044663196E-16  -3.41246144242156E-16  -2.51234788467727E-15   0.00000000000000E+00   0.00000000000000E+00
      0.00000000000000E+00   0.00000000000000E+00   3.41220984933827E-16   2.51593083306642E-20   3.41246144242157E-16
      2.51234788467728E-15
      6.74417544359188E-02
     -2.02325263307756E+01  -2.02325263307756E+01   0.00000000000000E+00   0.00000000000000E+00  -4.54607944537313E-19
     -3.66526459935162E-16  -3.66981067879699E-16  -2.68419010822991E-15   0.00000000000000E+00   0.00000000000000E+00
      0.00000000000000E+00   0.00000000000000E+00   3.66955907895515E-16   2.51599841841282E-20   3.66981067879699E-16
      2.68419010822992E-15
      7.72304738482071E-02
     -2.31691421544621E+01  -2.31691421544621E+01   0.00000000000000E+00   0.00000000000000E+00  -4.58186978385210E-19
     -3.97099112058791E-16  -3.97557299037176E-16  -2.86357711807504E-15   0.00000000000000E+00   0.00000000000000E+00
      0.00000000000000E+00   0.00000000000000E+00   3.97532138301654E-16   2.51607355212747E-20   3.97557299037175E-16
      2.86357711807506E-15
      8.81612105252623E-02
     -2.64483631575787E+01  -2.64483631575787E+01   0.00000000000000E+00   0.00000000000000E+00  -4.52466356481649E-19
     -4.26466935088674E-16  -4.26919401445156E-16  -3.05108916634320E-15   0.00000000000000E+00   0.00000000000000E+00
      0.00000000000000E+00   0.00000000000000E+00   4.26894239871050E-16   2.51615741110046E-20   4.26919401445161E-16
      3.05108916634323E-15
      1.00367199814641E-01
     -3.01101599443922E+01  -3.01101599443921E+01   0.00000000000000E+00   0.00000000000000E+00  -4.46733807891725E-19
     -4.56617563955065E-16  -4.57064297762957E-16  -3.24731632599207E-15   0.00000000000000E+00   0.00000000000000E+00
      0.00000000000000E+00   0.00000000000000E+00   4.57039135253701E-16   2.51625092505454E-20   4.57064297762952E-16
      3.24731632599208E-15
      1.13997221187780E-01
     -3.41991663563339E+01  -3.41991663563340E+01   0.00000000000000E+00   0.00000000000000E+00  -4.53717202409163E-19
     -4.89445397978741E-16  -4.89899115181150E-16  -3.45288086020411E-15   0.00000000000000E+00   0.00000000000000E+00
      0.00000000000000E+00   0.00000000000000E+00   4.89873951639092E-16   2.51635420544317E-20   4.89899115181147E-16
      3.45288086020412E-15
      1.29217411721118E-01
     -3.87652235163355E+01  -3.87652235163355E+01   0.00000000000000E+00   0.00000000000000E+00  -4.53807319965760E-19
     -5.24258471356866E-16  -5.24712278676832E-16  -3.66842320403523E-15   0.00000000000000E+00   0.00000000000000E+00
      0.00000000000000E+00   0.00000000000000E+00   5.24687114019470E-16   2.51646573634191E-20   5.24712278676834E-16